<?xml version="1.0"?>
<VTKFile type="UnstructuredGrid"  version="0.1"  >
<UnstructuredGrid>
<Piece  NumberOfPoints="6340" NumberOfCells="12376">
<Points>
<DataArray  type="Float64"  NumberOfComponents="3"  format="ascii">-0.01917400024831295 0.02052499912679195 0  -0.01984300091862679 0.02114300057291985 0  -0.02006999962031841 0.02016999945044518 0  -0.02059699967503548 0.0208589993417263 0  -0.01940199919044971 0.0196090005338192 0  -0.01901599951088428 0.02139599993824959 0  -0.01950100064277649 0.02209700085222721 0  -0.01904400065541267 0.02292199991643429 0  -0.01994699984788895 0.02279400080442429 0  -0.01856300048530102 0.02212800085544586 0  -0.008081999607384205 0.01791699975728989 0  -0.00875800009816885 0.0187740009278059 0  -0.009087000042200089 0.01783300004899502 0  -0.009770999662578106 0.01872899942100048 0  -0.02606000006198883 0.07198800146579742 0  -0.02702799998223782 0.07230000197887421 0  -0.02715899981558323 0.07151699811220169 0  -0.02617200091481209 0.06556300073862076 0  -0.02685399912297726 0.06618999689817429 0  -0.02699499949812889 0.06530299782752991 0  -0.02776999957859516 0.06564000248908997 0  -0.01371300034224987 0.08441100269556046 0  -0.01459399983286858 0.08421999961137772 0  -0.01395300030708313 0.08364599943161011 0  -0.02039000019431114 0.07838799804449081 0  -0.01940399967133999 0.07863800227642059 0  -0.01996799930930138 0.07926099747419357 0  -0.01983200013637543 0.07775799930095673 0  -0.02154899947345257 0.02405199967324734 0  -0.02072099968791008 0.02425500005483627 0  -0.02106700092554092 0.02494800090789795 0  -0.02137199975550175 0.02565300092101097 0  -0.02191000059247017 0.0247540008276701 0  -0.02023099921643734 0.02515600062906742 0  -0.01985999941825867 0.02439800091087818 0  -0.0189839992672205 0.02452200092375278 0  -0.01937000080943108 0.02528399974107742 0  -0.02119899913668633 0.02334100008010864 0  -0.02210400067269802 0.02317800000309944 0  -0.02157000079751015 0.02212999947369099 0  -0.02109700068831444 0.02151300013065338 0  -0.02081900089979172 0.02258099988102913 0  -0.02032900042831898 0.02187000028789043 0  -0.01594600081443787 0.02190000005066395 0  -0.01644900068640709 0.02101599983870983 0  -0.01546999998390675 0.02101900056004524 0  -0.01685399934649467 0.02199199981987476 0  -0.01775199919939041 0.02196799963712692 0  -0.01727399975061417 0.02285500057041645 0  0.03763699904084206 0.07683199644088745 0  0.03751600161194801 0.07594399899244308 0  0.03864200040698051 0.07603300362825394 0  0.03813400119543076 0.08734799921512604 0  0.03878699988126755 0.08758600056171417 0  0.03774499893188477 0.08806899935007095 0  0.02097100019454956 0.09584999829530716 0  0.02124200016260147 0.09510800242424011 0  0.0219969991594553 0.09537400305271149 0  0.02002800069749355 0.09628699719905853 0  0.02031699940562248 0.09539099782705307 0  -0.009429999627172947 0.09243699908256531 0  -0.008542999625205994 0.09270399808883667 0  -0.009225999936461449 0.09325499832630157 0  -0.008325999602675438 0.09352599829435349 0  -0.02024099975824356 0.09133800119161606 0  -0.0204900000244379 0.09069500118494034 0  -0.01949699968099594 0.09096699953079224 0  -0.02117599919438362 0.09133099764585495 0  -0.01782999932765961 0.09684800356626511 0  -0.01820199936628342 0.09753800183534622 0  -0.01859400048851967 0.0968250036239624 0  -0.01289299968630075 0.09085799753665924 0  -0.01207400020211935 0.09103800356388092 0  -0.01274900045245886 0.09160000085830688 0  -0.01372000016272068 0.09068900346755981 0  -0.01304499991238117 0.09012900292873383 0  -0.01387100014835596 0.08996099978685379 0  -0.0165609996765852 0.09216500073671341 0  -0.01719300076365471 0.09270600229501724 0  -0.01742500066757202 0.09198100119829178 0  -0.01522599998861551 0.09107500314712524 0  -0.01607800088822842 0.0909079983830452 0  -0.01539499964565039 0.09035500138998032 0  0.008949999697506428 0.08998499810695648 0  0.0098860003054142 0.08988100290298462 0  0.009239000268280506 0.090597003698349 0  0.007207999937236309 0.07793000340461731 0  0.007786000147461891 0.07708899676799774 0  0.008143000304698944 0.07782500237226486 0  -0.007790000177919865 0.01703000068664551 0  -0.006969000212848186 0.01724700070917606 0  -0.008659999817609787 0.01691799983382225 0  -0.009566999971866608 0.01680099964141846 0  -0.01320999953895807 0.01676999963819981 0  -0.01345400046557188 0.01786099933087826 0  -0.01405899971723557 0.01696999929845333 0  -0.01264300011098385 0.01766899973154068 0  -0.01266600005328655 0.01870300062000751 0  -0.01182399969547987 0.01783799938857555 0  -0.01219199970364571 0.02164099924266338 0  -0.0126740001142025 0.02068500034511089 0  -0.01174500025808811 0.02071800082921982 0  -0.01128299999982119 0.01985099911689758 0  -0.01073199976235628 0.02069300040602684 0  -0.01222799997776747 0.01972099952399731 0  -0.01312700007110834 0.02166399918496609 0  -0.0145420003682375 0.02089899964630604 0  -0.0149959996342659 0.02185899950563908 0  -0.01406699977815151 0.02175699919462204 0  -0.009255999699234962 0.01967599987983704 0  -0.01104999985545874 0.03067000024020672 0  -0.0115539999678731 0.02980099990963936 0  -0.01057500019669533 0.02973899990320206 0  -0.005607999861240387 0.02937600016593933 0  -0.006101000122725964 0.0303179994225502 0  -0.00660800002515316 0.02945400029420853 0  -0.008289000019431114 0.0197330005466938 0  -0.005793999880552292 0.01916399970650673 0  -0.006777000147849321 0.01900500059127808 0  -0.006000000052154064 0.01831600069999695 0  -0.006082000210881233 0.0174809992313385 0  -0.005100000184029341 0.01774000003933907 0  0.04045400023460388 0.08391600102186203 0  0.04127100110054016 0.08332300186157227 0  0.04091700166463852 0.08448699861764908 0  0.03994899988174438 0.08472300320863724 0  0.01537999976426363 0.0582129992544651 0  0.01635799929499626 0.05801500007510185 0  0.01592499949038029 0.05892999842762947 0  0.02800899930298328 0.04228400066494942 0  0.02844100072979927 0.04121899977326393 0  0.02889199927449226 0.04187100008130074 0  0.03002499975264072 0.04608599841594696 0  0.03086999990046024 0.04533600062131882 0  0.0311840008944273 0.0460130013525486 0  0.02977400086820126 0.04942699894309044 0  0.02890199981629848 0.04961499944329262 0  0.0293979998677969 0.04865600168704987 0  0.02899700030684471 0.04791799932718277 0  0.02993199974298477 0.04769499972462654 0  0.02848800085484982 0.04886500164866447 0  0.02800099924206734 0.04981200024485588 0  0.02804600074887276 0.0481560006737709 0  0.02754000015556812 0.04747800156474113 0  0.02708600088953972 0.0483819991350174 0  0.02656199969351292 0.04769499972462654 0  0.03779200091958046 0.08613300323486328 0  0.03682100027799606 0.08624300360679626 0  0.03747700154781342 0.08553700149059296 0  0.036531001329422 0.08562000095844269 0  0.007391999941319227 0.0241749994456768 0  0.008093000389635563 0.02463199943304062 0  0.007404999807476997 0.0252509992569685 0  0.008169000037014484 0.02560099959373474 0  0.0261170007288456 0.04859999939799309 0  0.02233199961483479 0.05103100091218948 0  0.02189400047063828 0.05194300040602684 0  0.02135800011456013 0.05122699961066246 0  0.02285999990999699 0.05174500122666359 0  0.02843800000846386 0.0505560003221035 0  0.01760799996554852 0.03491500020027161 0  0.01677799969911575 0.03482099995017052 0  0.01716100051999092 0.03391300141811371 0  0.01250999979674816 0.04038999974727631 0  0.01163600012660027 0.04041700065135956 0  0.01206200011074543 0.039512999355793 0  0.0111870002001524 0.03954000025987625 0  0.01076200045645237 0.04044299945235252 0  0.01073800027370453 0.03866200149059296 0  0.01161300018429756 0.03863799944519997 0  0.01208500005304813 0.04129499942064285 0  -0.027708999812603 0.06649000197649002 0  -0.02662700042128563 0.06702800095081329 0  -0.02765299938619137 0.06726600229740143 0  -0.02589100040495396 0.06647399812936783 0  -0.02556299977004528 0.06733399629592896 0  -0.02453099936246872 0.06763699650764465 0  -0.02506900019943714 0.06826599687337875 0  -0.02389599941670895 0.06703700125217438 0  -0.0235190000385046 0.0679209977388382 0  -0.02409599907696247 0.06854300200939178 0  -0.027793999761343 0.06477099657058716 0  -0.01955400034785271 0.08012200146913528 0  -0.0205290000885725 0.07988099753856659 0  -0.02002199925482273 0.08800800144672394 0  -0.02091200090944767 0.08785299956798553 0  -0.02025399915874004 0.08727599680423737 0  -0.02114100009202957 0.08712500333786011 0  -0.0204900000244379 0.08653700351715088 0  -0.01951999962329865 0.09028799831867218 0  -0.01868199929594994 0.09044600278139114 0  -0.01857499964535236 0.09113699942827225 0  -0.01484899967908859 0.08344399929046631 0  -0.01182300038635731 0.07826100289821625 0  -0.01084099989384413 0.07851199805736542 0  -0.01142000034451485 0.07912500202655792 0  -0.01106599997729063 0.07996299862861633 0  -0.01046700030565262 0.0793600007891655 0  -0.01569600030779839 0.07566999644041061 0  -0.01615200005471706 0.07474300265312195 0  -0.0151589997112751 0.07500900328159332 0  -0.01416600029915571 0.07527600228786469 0  -0.01461200043559074 0.07435200363397598 0  -0.01884200051426888 0.07801300287246704 0  -0.01830000057816505 0.07736799865961075 0  -0.01929599978029728 0.07710699737071991 0  -0.02029399946331978 0.07684600353240967 0  -0.024702999740839 0.06916599720716476 0  -0.02539999969303608 0.07137300074100494 0  -0.02501999959349632 0.07226800173521042 0  -0.02238599956035614 0.02373299933969975 0  -0.02266000024974346 0.02426999993622303 0  -0.02284399978816509 0.02478500083088875 0  -0.02304200083017349 0.02534000016748905 0  -0.0221829991787672 0.02548700012266636 0  -0.01946399919688702 0.02365400083363056 0  -0.01858000084757805 0.02376800030469894 0  -0.02035300061106682 0.02350899949669838 0  -0.02182899974286556 0.02263800054788589 0  -0.01739300042390823 0.01817299984395504 0  -0.01702000014483929 0.01893899962306023 0  -0.01813000068068504 0.01854000054299831 0  -0.01663599908351898 0.01779600046575069 0  -0.01812900044023991 0.02293499931693077 0  -0.01638
[...]
<PointData  Vectors="velocity"> 
<DataArray  type="Float64"  Name="velocity"  NumberOfComponents="3" format="ascii">1.8560000462457538e-03 2.2799998987466097e-03 0.0000000000000000e+00  2.0049999002367258e-03 2.3779999464750290e-03 0.0000000000000000e+00  -3.0219999607652426e-03 3.0219999607652426e-03 0.0000000000000000e+00  -3.5530000459402800e-03 4.0839998982846737e-03 0.0000000000000000e+00  -2.2420000750571489e-03 2.2420000750571489e-03 0.0000000000000000e+00  4.2909998446702957e-03 4.5969998463988304e-03 0.0000000000000000e+00  5.2950000390410423e-03 5.4310001432895660e-03 0.0000000000000000e+00  9.0579995885491371e-03 8.5460003465414047e-03 0.0000000000000000e+00  6.3829999417066574e-03 6.3049998134374619e-03 0.0000000000000000e+00  7.4129998683929443e-03 7.3020001873373985e-03 0.0000000000000000e+00  -8.0500001786276698e-04 -9.2500000027939677e-04 0.0000000000000000e+00  -7.0000001869630069e-05 -4.3899999582208693e-04 0.0000000000000000e+00  -9.3099998775869608e-04 -6.0000002849847078e-04 0.0000000000000000e+00  1.5900000289548188e-04 1.7200000002048910e-04 0.0000000000000000e+00  -6.0629998333752155e-03 -3.9540000259876251e-02 0.0000000000000000e+00  -2.8930999338626862e-02 5.3596999496221542e-02 0.0000000000000000e+00  -2.8462000191211700e-02 5.2891999483108521e-02 0.0000000000000000e+00  -3.0499999411404133e-04 -4.8985999077558517e-02 0.0000000000000000e+00  -2.0459999796003103e-03 -4.3845001608133316e-02 0.0000000000000000e+00  -4.5699998736381531e-04 -4.3216999620199203e-02 0.0000000000000000e+00  -2.4932000786066055e-02 4.9864001572132111e-02 0.0000000000000000e+00  -7.2563000023365021e-02 -7.3556996881961823e-02 0.0000000000000000e+00  -6.4733996987342834e-02 -6.8035997450351715e-02 0.0000000000000000e+00  -6.9665998220443726e-02 -7.8464999794960022e-02 0.0000000000000000e+00  -1.7219999805092812e-02 -5.9539999812841415e-02 0.0000000000000000e+00  -2.1595999598503113e-02 -6.6610001027584076e-02 0.0000000000000000e+00  -2.1223999559879303e-02 -5.9186000376939774e-02 0.0000000000000000e+00  -1.8781000748276711e-02 -6.6941000521183014e-02 0.0000000000000000e+00  3.8989998865872622e-03 3.9240000769495964e-03 0.0000000000000000e+00  7.9520000144839287e-03 7.4109998531639576e-03 0.0000000000000000e+00  6.4989998936653137e-03 6.0379998758435249e-03 0.0000000000000000e+00  6.4460001885890961e-03 5.8570001274347305e-03 0.0000000000000000e+00  3.1679999083280563e-03 3.1920000910758972e-03 0.0000000000000000e+00  1.0827999562025070e-02 9.4349998980760574e-03 0.0000000000000000e+00  1.1665999889373779e-02 1.0332000441849232e-02 0.0000000000000000e+00  1.4987999573349953e-02 1.2667999602854252e-02 0.0000000000000000e+00  1.5443000011146069e-02 1.2744000181555748e-02 0.0000000000000000e+00  4.4309999793767929e-03 4.4809998944401741e-03 0.0000000000000000e+00  -5.2729998715221882e-03 8.2639995962381363e-03 0.0000000000000000e+00  -4.5329998247325420e-03 6.0439999215304852e-03 0.0000000000000000e+00  -4.0569999255239964e-03 5.0920001231133938e-03 0.0000000000000000e+00  3.4829999785870314e-03 3.6810000892728567e-03 0.0000000000000000e+00  2.7689998969435692e-03 3.0690000858157873e-03 0.0000000000000000e+00  1.0680999606847763e-02 9.7200004383921623e-03 0.0000000000000000e+00  7.0020002312958241e-03 7.1370000950992107e-03 0.0000000000000000e+00  7.7869999222457409e-03 7.6939999125897884e-03 0.0000000000000000e+00  9.8940003663301468e-03 9.2749996110796928e-03 0.0000000000000000e+00  8.3790002390742302e-03 8.1310002133250237e-03 0.0000000000000000e+00  1.2562000192701817e-02 1.1114000342786312e-02 0.0000000000000000e+00  6.1354998499155045e-02 1.8201200664043427e-01 0.0000000000000000e+00  5.3672000765800476e-02 1.7683300375938416e-01 0.0000000000000000e+00  -1.6584999859333038e-02 4.2236000299453735e-02 0.0000000000000000e+00  1.0767400264739990e-01 2.2434300184249878e-01 0.0000000000000000e+00  1.0650700330734253e-01 2.2004500031471252e-01 0.0000000000000000e+00  1.0461299866437912e-01 2.2553199529647827e-01 0.0000000000000000e+00  -8.6162000894546509e-02 1.0869800299406052e-01 0.0000000000000000e+00  -7.5741998851299286e-02 1.2063600122928619e-01 0.0000000000000000e+00  -7.3646999895572662e-02 1.2233100086450577e-01 0.0000000000000000e+00  -9.7136996686458588e-02 9.5670998096466064e-02 0.0000000000000000e+00  -8.6280003190040588e-02 1.0998599976301193e-01 0.0000000000000000e+00  -5.7135000824928284e-02 -4.2628001421689987e-02 0.0000000000000000e+00  -6.1220999807119370e-02 -4.9883998930454254e-02 0.0000000000000000e+00  -5.2338000386953354e-02 -3.8929000496864319e-02 0.0000000000000000e+00  -5.6779999285936356e-02 -4.6236999332904816e-02 0.0000000000000000e+00  -1.7940000398084521e-03 8.1399995833635330e-03 0.0000000000000000e+00  -2.2799998987466097e-03 6.1400001868605614e-03 0.0000000000000000e+00  -5.0380001775920391e-03 7.7169998548924923e-03 0.0000000000000000e+00  -1.8095999956130981e-02 7.7607996761798859e-02 0.0000000000000000e+00  8.2270000129938126e-03 2.3225000128149986e-02 0.0000000000000000e+00  1.4280000468716025e-03 9.5059998333454132e-02 0.0000000000000000e+00  -1.2639999622479081e-03 9.3175999820232391e-02 0.0000000000000000e+00  -4.7283999621868134e-02 -2.1740000694990158e-02 0.0000000000000000e+00  -5.2092999219894409e-02 -2.7396999299526215e-02 0.0000000000000000e+00  -4.1540000587701797e-02 -1.7005000263452530e-02 0.0000000000000000e+00  -4.2293999344110489e-02 -1.6579000279307365e-02 0.0000000000000000e+00  -5.0843998789787292e-02 -2.6319999247789383e-02 0.0000000000000000e+00  -4.5398999005556107e-02 -2.0914999768137932e-02 0.0000000000000000e+00  -1.4189999550580978e-02 8.4960004314780235e-03 0.0000000000000000e+00  -1.0530999861657619e-02 1.2400000356137753e-02 0.0000000000000000e+00  -1.0834000073373318e-02 9.8249996080994606e-03 0.0000000000000000e+00  -2.8878999873995781e-02 -3.7539999466389418e-03 0.0000000000000000e+00  -2.4561999365687370e-02 -5.8699998771771789e-04 0.0000000000000000e+00  -3.2393999397754669e-02 -7.8560002148151398e-03 0.0000000000000000e+00  -9.5864996314048767e-02 -5.9090000577270985e-03 0.0000000000000000e+00  -8.7955996394157410e-02 1.2478999793529510e-02 0.0000000000000000e+00  -1.0035599768161774e-01 -3.7920000031590462e-03 0.0000000000000000e+00  3.1481999903917313e-02 2.6610000059008598e-02 0.0000000000000000e+00  4.2962998151779175e-02 4.1099000722169876e-02 0.0000000000000000e+00  3.9140000939369202e-02 4.5400999486446381e-02 0.0000000000000000e+00  9.0659996494650841e-03 4.5329998247325420e-03 0.0000000000000000e+00  9.2970002442598343e-03 4.9939998425543308e-03 0.0000000000000000e+00  8.3410004153847694e-03 4.0500001050531864e-03 0.0000000000000000e+00  7.5849997811019421e-03 3.5459999926388264e-03 0.0000000000000000e+00  4.5329998247325420e-03 1.5109999803826213e-03 0.0000000000000000e+00  -4.4299999717622995e-04 1.0789999505504966e-03 0.0000000000000000e+00  3.7909999955445528e-03 1.2639999622479081e-03 0.0000000000000000e+00  -7.0899998536333442e-04 9.0500002261251211e-04 0.0000000000000000e+00  7.5599999399855733e-04 2.1629999391734600e-03 0.0000000000000000e+00  -7.7400001464411616e-04 7.9999997979030013e-04 0.0000000000000000e+00  1.1141999624669552e-02 7.2269998490810394e-03 0.0000000000000000e+00  6.9769998081028461e-03 5.7890000753104687e-03 0.0000000000000000e+00  7.1789999492466450e-03 4.9840002320706844e-03 0.0000000000000000e+00  3.6110000219196081e-03 2.8719999827444553e-03 0.0000000000000000e+00  6.8350001238286495e-03 3.8310000672936440e-03 0.0000000000000000e+00  3.4380001015961170e-03 3.5900000948458910e-03 0.0000000000000000e+00  1.1234999634325504e-02 8.3060003817081451e-03 0.0000000000000000e+00  7.6310001313686371e-03 7.3699997738003731e-03 0.0000000000000000e+00  1.1349000036716461e-02 9.8320003598928452e-03 0.0000000000000000e+00  1.1485000140964985e-02 9.3179997056722641e-03 0.0000000000000000e+00  2.5939999613910913e-03 9.2299998505041003e-04 0.0000000000000000e+00  5.8203998953104019e-02 3.0329000204801559e-02 0.0000000000000000e+00  5.8825999498367310e-02 2.9614999890327454e-02 0.0000000000000000e+00  6.2313001602888107e-02 3.0883999541401863e-02 0.0000000000000000e+00  6.3091002404689789e-02 2.5700999423861504e-02 0.0000000000000000e+00  7.0812001824378967e-02 2.9773000627756119e-02 0.0000000000000000e+00  6.4429000020027161e-02 2.7474999427795410e-02 0.0000000000000000e+00  2.3000000510364771e-03 3.8000001222826540e-04 0.0000000000000000e+00  -6.3600001158192754e-04 -1.1810000287368894e-03 0.0000000000000000e+00  -3.9800000376999378e-04 -1.0369999799877405e-03 0.0000000000000000e+00  -1.0740000288933516e-03 -1.3689999468624592e-03 0.0000000000000000e+00  9.5459995791316032e-03 5.4919999092817307e-03 0.0000000000000000e+00  9.8219998180866241e-03 6.0439999215304852e-03 0.0000000000000000e+00  1.0046199709177017e-01 1.9590699672698975e-01 0.0000000000000000e+00  9.3906000256538391e-02 1.8139299750328064e-01 0.0000000000000000e+00  1.0064200311899185e-01 1.9314099848270416e-01 0.0000000000000000e+00  1.0512600094079971e-01 2.0539499819278717e-01 0.0000000000000000e+00  1.1579799652099609e-01 1.1597900092601776e-01 0.0000000000000000e+00  1.1491499841213226e-01 1.2386299669742584e-01 0.0000000000000000e+00  1.0841599851846695e-01 1.2304600328207016e-01 0.0000000000000000e+00  2.4991000071167946e-02 2.6572000235319138e-02 0.0000000000000000e+00  1.7299000173807144e-02 2.8031000867486000e-02 0.0000000000000000e+00  1.6563000157475471e-02 2.8767000883817673e-02 0.0000000000000000e+00  2.7493000030517578e-02 4.6721998602151871e-02 0.0000000000000000e+00  1.3070000335574150e-02 3.1996000558137894e-02 0.0000000000000000e+00  1.2597000226378441e-02 3.2232999801635742e-02 0.0000000000000000e+00  4.5030001550912857e-02 8.0191001296043396e-02 0.0000000000000000e+00  5.3994998335838318e-02 8.9362002909183502e-02 0.0000000000000000e+00  4.5343000441789627e-02 7.5801998376846313e-02 0.0000000000000000e+00  4.5758001506328583e-02 7.1803003549575806e-02 0.0000000000000000e+00  3.5865001380443573e-02 6.2024999409914017e-02 0.0000000000000000e+00  5.4967999458312988e-02 8.5184000432491302e-02 0.0000000000000000e+00  6.3313998281955719e-02 9.8447002470493317e-02 0.0000000000000000e+00  5.6095000356435776e-02 8.1454001367092133e-02 0.0000000000000000e+00  5.7709001004695892e-02 7.8271001577377319e-02 0.0000000000000000e+00  6.6477999091148376e-02 9.0481996536254883e-02 0.0000000000000000e+00  6.8402998149394989e-02 8.6901001632213593e-02 0.0000000000000000e+00  1.1149500310420990e-01 2.2687500715255737e-01 0.0000000000000000e+00  1.1254700273275375e-01 2.3275999724864960e-01 0.0000000000000000e+00  1.1275400221347809e-01 2.2832599282264709e-01 0.0000000000000000e+00  1.1410599946975708e-01 2.3405499756336212e-01 0.0000000000000000e+00  1.8601000308990479e-02 1.6620999202132225e-02 0.0000000000000000e+00  1.9106000661849976e-02 1.6620999202132225e-02 0.0000000000000000e+00  6.7759999074041843e-03 4.8699998296797276e-03 0.0000000000000000e+00  7.3649999685585499e-03 5.3099999204277992e-03 0.0000000000000000e+00  7.6746001839637756e-02 9.8502002656459808e-02 0.0000000000000000e+00  1.1160100251436234e-01 1.2657900154590607e-01 0.0000000000000000e+00  1.1422699689865112e-01 1.3178099691867828e-01 0.0000000000000000e+00  1.1723999679088593e-01 1.2694799900054932e-01 0.0000000000000000e+00  1.0852599889039993e-01 1.3132600486278534e-01 0.0000000000000000e+00  6.1758000403642654e-02 1.0247000306844711e-01 0.0000000000000000e+00  3.3631000667810440e-02 2.2476999089121819e-02 0.0000000000000000e+00  3.7200998514890671e-02 2.4842999875545502e-02 0.0000000000000000e+00  2.6634000241756439e-02 1.8835999071598053e-02 0.0000000000000000e+00  1.2536600232124329e-01 6.7432001233100891e-02 0.0000000000000000e+00  1.2922200560569763e-01 6.6060997545719147e-02 0.0000000000000000e+00  1.2012299895286560e-01 6.2807001173496246e-02 0.0000000000000000e+00  1.2433200329542160e-01 6.1554998159408569e-02 0.0000000000000000e+00  1.3258500397205353e-01 6.3854999840259552e-02 0.0000000000000000e+00  1.1844599992036819e-01 5.6979998946189880e-02 0.0000000000000000e+00  1.1416500061750412e-01 5.8061998337507248e-02 0.0000000000000000e+00  1.3416999578475952e-01 7.0047996938228607e-02 0.0000000000000000e+00  -2.5699000805616379e-02 5.0119001418352127e-02 0.0000000000000000e+00  -2.8699999675154686e-03 -4.4551998376846313e-02 0.0000000000000000e+00  -2.6399999856948853e-02 5.0353001803159714e-02 0.0000000000000000e+00  -2.0190000068396330e-03 -5.0335999578237534e-02 0.0000000000000000e+00  -3.2379999756813049e-03 -5.1663998514413834e-02 0.0000000000000000e+00  -4.0150000713765621e-03 -5.8853000402450562e-02 0.0000000000000000e+00  -4.3640001676976681e-03 -5.3718999028205872e-02 0.0000000000000000e+00  -2.9559999238699675e-03 -6.4554996788501740e-02 0.0000000000000000e+00  -4.9930000677704811e-03 -6.6169001162052155e-02 0.0000000000000000e+00  -5.3570000454783440e-03 -6.0513999313116074e-02 0.0000000000000000e+00  -2.4404000490903854e-02 4.9336001276969910e-02 0.0000000000000000e+00  -2.4106999859213829e-02 -5.7978998869657516e-02 0.0000000000000000e+00  -1.9191000610589981e-02 -5.1592998206615448e-02 0.0000000000000000e+00  -1.3274000026285648e-02 -5.4100002162158489e-03 0.0000000000000000e+00  -9.7449999302625656e-03 -4.9780001863837242e-03 0.0000000000000000e+00  -1.5003999695181847e-02 -8.8780000805854797e-03 0.0000000000000000e+00  -1.1637000367045403e-02 -8.5239997133612633e-03 0.0000000000000000e+00  -1.6029000282287598e-02 -1.2725999578833580e-02 0.0000000000000000e+00  -9.2010004445910454e-03 4.5759999193251133e-03 0.0000000000000000e+00  -1.2257999740540981e-02 4.8489999026060104e-03 0.0000000000000000e+00  -8.2229999825358391e-03 7.9910000786185265e-03 0.0000000000000000e+00  -6.1746999621391296e-02 -7.2719000279903412e-02 0.0000000000000000e+00  -5.4264999926090240e-02 -1.3004699349403381e-01 0.0000000000000000e+00  -5.9636998921632767e-02 -1.3453799486160278e-01 0.0000000000000000e+00  -6.2277998775243759e-02 -1.2838999927043915e-01 0.0000000000000000e+00  -7.0586003363132477e-02 -1.2624999880790710e-01 0.0000000000000000e+00  -6.7909002304077148e-02 -1.3230800628662109e-01 0.0000000000000000e+00  -2.8954999521374702e-02 -1.1196400225162506e-01 0.0000000000000000e+00  -2.5823000818490982e-02 -1.1116299778223038e-01 0.0000000000000000e+00  -2.8462000191211700e-02 -1.1854699999094009e-01 0.0000000000000000e+00  -3.1227000057697296e-02 -1.2554599344730377e-01 0.0000000000000000e+00  -2.7255000546574593e-02 -1.2468200176954269e-01 0.0000000000000000e+00  -2.3074999451637268e-02 -7.4405997991561890e-02 0.0000000000000000e+00  -2.4823000654578209e-02 -8.2257002592086792e-02 0.0000000000000000e+00  -2.0848000422120094e-02 -7.4628002941608429e-02 0.0000000000000000e+00  -1.7299000173807144e-02 -6.7167997360229492e-02 0.0000000000000000e+00  -5.3619998507201672e-03 -5.4570998996496201e-02 0.0000000000000000e+00  -6.7219999618828297e-03 -4.5150000602006912e-02 0.0000000000000000e+00  -7.1760001592338085e-03 -4.5660000294446945e-02 0.0000000000000000e+00  -5.6650000624358654e-03 9.4389999285340309e-03 0.0000000000000000e+00  -6.0439999215304852e-03 1.0576999746263027e-02 0.0000000000000000e+00  -6.0439999215304852e-03 1.1808999814093113e-02 0.0000000000000000e+00  -6.0439999215304852e-03 1.3136999681591988e-02 0.0000000000000000e+00  3.5900000948458910e-03 3.4809999633580446e-03 0.0000000000000000e+00  1.0514000430703163e-02 9.5870001241564751e-03 0.0000000000000000e+00  1.3350999914109707e-02 1.1644000187516212e-02 0.0000000000000000e+00  7.4660000391304493e-03 7.1370000950992107e-03 0.0000000000000000e+00  -4.8919999971985817e-03 7.1209999732673168e-03 0.0000000000000000e+00  2.0100000256206840e-04 7.5599999399855733e-04 0.0000000000000000e+00  1.4189999783411622e-03 2.0109999459236860e-03 0.0000000000000000e+00  -7.5599999399855733e-04 7.5599999399855733e-04 0.0000000000000000e+00  1.1820000363513827e-03 7.5599999399855733e-04 0.0000000000000000e+00  1.1168999597430229e-02 1.0165000334382057e-02 0.0000000000000000e+00  1.4096999540925026e-02 1.1940999887883663e-02 0.0000000000000000e+00  1.9102999940514565e-02 1.4507000334560871e-02 0.0000000000000000e+00  1.7395000904798508e-02 1.3961000367999077e-02 0.0000000000000000e+00  5.3436998277902603e-02 2.8028000146150589e-02 0.0000000000000000e+00  5.2689999341964722e-02 2.8687000274658203e-02 0.0000000000000000e+00  4.7251999378204346e-02 2.5637000799179077e-02 0.0000000000000000e+00  1.1109000071883202e-02 6.1599998734891415e-03 0.0000000000000000e+00  2.1443000063300133e-02 9.6810003742575645e-03 0.0000000000000000e+00  2.7312999591231346e-02 1.1916000396013260e-02 0.0000000000000000e+00  2.8147999197244644e-02 1.3043000362813473e-02 0.0000000000000000e+00  2.0437000319361687e-02 8.5490001365542412e-03 0.0000000000000000e+00  1.5344000421464443e-02 6.6650002263486385e-03 0.0000000000000000e+00  3.3420000225305557e-02 1.4379000291228294e-02 0.0000000000000000e+00  3.9606001228094101e-02 1.7002999782562256e-02 0.0000000000000000e+00  4.0883000940084457e-02 1.8278999254107475e-02 0.0000000000000000e+00  1.0427500307559967e-01 2.0084600150585175e-01 0.0000000000000000e+00  1.0127799957990646e-01 1.9130100309848785e-01 0.0000000000000000e+00  1.0435599833726883e-01 2.0251099765300751e-01 0.0000000000000000e+00  1.1089099943637848e-01 2.2518600523471832e-01 0.0000000000000000e+00  1.1175499856472015e-01 2.2446399927139282e-01 0.0000000000000000e+00  1.1344099789857864e-01 2.3010599613189697e-01 0.0000000000000000e+00  1.0707099735736847e-01 2.4007999897003174e-01 0.0000000000000000e+00  1.0884399712085724e-01 2.4301299452781677e-01 0.0000000000000000e+00  1.0357099771499634e-01 2.3971100151538849e-01 0.0000000000000000e+00  -1.5866000205278397e-02 4.0796998888254166e-02 0.0000000000000000e+00  9.5908001065254211e-02 2.2968900203704834e-01 0.0000000000000000e+00  8.9492000639438629e-02 2.2917799651622772e-01 0.0000000000000000e+00  9.8158001899719238e-02 2.3276500403881073e-01 0.0000000000000000e+00  1.0308200120925903e-01 2.3200400173664093e-01 0.0000000000000000e+00  9.9480003118515015e-02 2.2912399470806122e-01 0.0000000000000000e+00  1.0286799818277359e-01 2.2849799692630768e-01 0.0000000000000000e+00  1.1445400118827820e-01 2.3809100687503815e-01 0.0000000000000000e+00  1.1501999944448471e-01 2.3513799905776978e-01 0.0000000000000000e+00  1.1547400057315826e-01 2.3901900649070740e-01 0.0000000000000000e+00  1.1546199768781662e-01 2.3591199517250061e-01 0.0000000000000000e+00  1.0963000357151031e-01 2.2561599314212799e-01 0.0000000000000000e+00  1.0729499906301498e-01 2.2986400127410889e-01 0.0000000000000000e+00  1.0756199806928635e-01 2.3344099521636963e-01 0.0000000000000000e+00  1.0454899817705154e-01 2.3517100512981415e-01 0.0000000000000000e+00  1.0423599928617477e-01 2.3780600726604462e-01 0.0000000000000000e+00  1.0869199782609940e-01 2.3743000626564026e-01 0.0000000000000000e+00  1.1034899950027466e-01 2.3095600306987762e-01 0.0000000000000000e+00  -1.1752700060606003e-01 6.8094000220298767e-02 0.0000000000000000e+00  -1.2534999847412109e-01 5.5022001266479492e-02 0.0000000000000000e+00  -1.1880099773406982e-01 6.4066998660564423e-02 0.0000000000000000e+00  -9.0648002922534943e-02 1.0303399711847305e-01 0.0000000000000000e+00  -9.7676999866962433e-02 9.5700003206729889e-02 0.0000000000000000e+00  -1.0378099977970123e-01 8.8468000292778015e-02 0.0000000000000000e+00  -1.0810700058937073e-01 8.1818997859954834e-02 0.0000000000000000e+00  -4.9529999494552612e-02 -2.9165999963879585e-02 0.0000000000000000e+00  -3.9586000144481659e-02 -1.8797999247908592e-02 0.0000000000000000e+00  -4.5595001429319382e-02 -2.2931000217795372e-02 0.0000000000000000e+00  -5.6816000491380692e-02 -3.3829998224973679e-02 0.0000000000000000e+00  -6.9649003446102142e-02 -5.4145000874996185e-02 0.0000000000000000e+00  -8.0338999629020691e-02 -7.9334996640682220e-02 0.0000000000000000e+00  -8.2097999751567841e-02 -8.1711001694202423e-02 0.0000000000000000e+00  -8.9334003627300262e-02 -8.8303998112678528e-02 0.0000000000000000e+00  -4.9095999449491501e-