<?xml version="1.0"?>
<VTKFile type="UnstructuredGrid"  version="0.1"  >
<UnstructuredGrid>
<Piece  NumberOfPoints="6340" NumberOfCells="12376">
<Points>
<DataArray  type="Float64"  NumberOfComponents="3"  format="ascii">-0.01953399926424026 0.02080300077795982 0  -0.02032599970698357 0.02152499929070473 0  -0.02053000032901764 0.02051999978721142 0  -0.02118399925529957 0.02136700041592121 0  -0.01974800042808056 0.01987599954009056 0  -0.01939800009131432 0.02168799936771393 0  -0.01998700015246868 0.02248699963092804 0  -0.01950700022280216 0.02328599989414215 0  -0.02054600045084953 0.02332600019872189 0  -0.01892100088298321 0.02240299992263317 0  -0.007526000030338764 0.01807999983429909 0  -0.008256999775767326 0.01890799961984158 0  -0.008584000170230865 0.01796600036323071 0  -0.009322999976575375 0.01883300021290779 0  -0.02556400001049042 0.08008600026369095 0  -0.02648499980568886 0.08068899810314178 0  -0.02666500024497509 0.07988700270652771 0  -0.0261790007352829 0.07323200255632401 0  -0.02678699977695942 0.07409500330686569 0  -0.0269980002194643 0.07318300008773804 0  -0.02772000059485435 0.07376000285148621 0  -0.01160500012338161 0.09037899971008301 0  -0.01252300012856722 0.09037499874830246 0  -0.01203600037842989 0.08953899890184402 0  -0.01947199925780296 0.08538500219583511 0  -0.01847399957478046 0.08538399636745453 0  -0.01892499998211861 0.08621899783611298 0  -0.01902000047266483 0.08454400300979614 0  -0.0225019995123148 0.02511199936270714 0  -0.02153800055384636 0.02507499977946281 0  -0.02199500054121017 0.02597500011324883 0  -0.02240600064396858 0.0268779993057251 0  -0.02297800034284592 0.02602799981832504 0  -0.0210219994187355 0.02594099938869476 0  -0.02054399996995926 0.02503900043666363 0  -0.01953399926424026 0.02500000037252903 0  -0.02002899907529354 0.02589800022542477 0  -0.02203799970448017 0.02418899908661842 0  -0.02309500053524971 0.02429600059986115 0  -0.02239000052213669 0.02292999997735023 0  -0.02180399931967258 0.02217100001871586 0  -0.02154600061476231 0.02326899953186512 0  -0.02093400061130524 0.02240400016307831 0  -0.01598699949681759 0.02197699993848801 0  -0.01650799997150898 0.0210999995470047 0  -0.0154389999806881 0.02107400074601173 0  -0.01698300056159496 0.02210099995136261 0  -0.01799700036644936 0.02216099947690964 0  -0.01749899983406067 0.02303300052881241 0  0.04165399819612503 0.08502999693155289 0  0.04152199998497963 0.08415199816226959 0  0.04278400167822838 0.08451399952173233 0  0.04193099960684776 0.09649000316858292 0  0.04266500100493431 0.09691599756479263 0  0.0416870005428791 0.09739100188016891 0  0.0259419996291399 0.1050340011715889 0  0.02605899982154369 0.1040849983692169 0  0.02690500020980835 0.1045660004019737 0  0.02505799941718578 0.1054629981517792 0  0.02515799924731255 0.1043109968304634 0  -0.00548599986359477 0.09875600039958954 0  -0.004575000144541264 0.09879499673843384 0  -0.005111000034958124 0.0996289998292923 0  -0.004191000014543533 0.09967300295829773 0  -0.01638500019907951 0.1003239974379539 0  -0.01677300035953522 0.09960299730300903 0  -0.01574200019240379 0.09969499707221985 0  -0.01729900017380714 0.1005399972200394 0  -0.01269599981606007 0.1062889993190765 0  -0.01289399992674589 0.1071949973702431 0  -0.01346100028604269 0.1064789965748787 0  -0.009283999912440777 0.09793899953365326 0  -0.008427999913692474 0.09792599827051163 0  -0.008957999758422375 0.09876800328493118 0  -0.01014200039207935 0.09794899821281433 0  -0.009611000306904316 0.09710799902677536 0  -0.01046799961477518 0.09711799770593643 0  -0.01259000040590763 0.1004329994320869 0  -0.01308299973607063 0.1012390032410622 0  -0.01348299998790026 0.1004270017147064 0  -0.01153500005602837 0.09879200160503387 0  -0.01241200044751167 0.09880100190639496 0  -0.01186999958008528 0.0979669988155365 0  0.01209199987351894 0.09519699960947037 0  0.01304499991238117 0.09521199762821198 0  0.0125320004299283 0.0960640013217926 0  0.007571999914944172 0.07877200096845627 0  0.008193000219762325 0.07793500274419785 0  0.008523000404238701 0.07878699898719788 0  -0.007199999876320362 0.01720999926328659 0  -0.006333999801427126 0.01745999976992607 0  -0.00811500009149313 0.0170729998499155 0  -0.009069000370800495 0.01692900061607361 0  -0.01291000004857779 0.01680999994277954 0  -0.01319499965757132 0.01789899915456772 0  -0.01381700020283461 0.0170070007443428 0  -0.0123300002887845 0.01771499961614609 0  -0.01237700041383505 0.01874100044369698 0  -0.01147099956870079 0.01790099963545799 0  -0.0119420001283288 0.02167600020766258 0  -0.01243199966847897 0.02072099968791008 0  -0.01144700031727552 0.02076300047338009 0  -0.01094199996441603 0.0199120007455349 0  -0.01037800032645464 0.02075999975204468 0  -0.01193599961698055 0.01976200006902218 0  -0.0129380002617836 0.02169599942862988 0  -0.0144250001758337 0.02092700079083443 0  -0.01494900044053793 0.0219080001115799 0  -0.01393899973481894 0.02178500033915043 0  -0.008801000192761421 0.01978700049221516 0  -0.01094000041484833 0.03069400042295456 0  -0.01145599968731403 0.0298250000923872 0  -0.01041300036013126 0.0297669991850853 0  -0.005156999919563532 0.02950900048017502 0  -0.005696000065654516 0.03042699955403805 0  -0.006211999803781509 0.02955600060522556 0  -0.007782000117003918 0.0198730006814003 0  -0.005127999931573868 0.01940600015223026 0  -0.006169000174850225 0.01920600049197674 0  -0.00532800005748868 0.01855899952352047 0  -0.005396999884396791 0.01773099973797798 0  -0.004360000137239695 0.01803000085055828 0  0.04390500113368034 0.09254299849271774 0  0.04496699944138527 0.09216400235891342 0  0.04430500045418739 0.09321200102567673 0  0.04323500022292137 0.0932760015130043 0  0.01748600043356419 0.05996499955654144 0  0.01856400072574615 0.05996999889612198 0  0.01803700067102909 0.06082199886441231 0  0.03218699991703033 0.0462229996919632 0  0.03272299841046333 0.04521200060844421 0  0.0331679992377758 0.04599099978804588 0  0.03408300131559372 0.05063199996948242 0  0.03504199907183647 0.05004100129008293 0  0.03533000126481056 0.0508119985461235 0  0.0335800014436245 0.0540350005030632 0  0.03262799978256226 0.054042998701334 0  0.03322700038552284 0.0531580001115799 0  0.0328500010073185 0.05230500176548958 0  0.03386899828910828 0.0522800013422966 0  0.032235998660326 0.05317400023341179 0  0.03164700046181679 0.05404800176620483 0  0.03181200101971626 0.0523420013487339 0  0.0313199982047081 0.05152300000190735 0  0.03076699934899807 0.05236199870705605 0  0.03025699965655804 0.0515270009636879 0  0.04130199924111366 0.09480699896812439 0  0.04031400009989738 0.09479399770498276 0  0.04083999991416931 0.09395699948072433 0  0.03987200185656548 0.09391199797391891 0  0.00952799990773201 0.02550099976360798 0  0.01033200044184923 0.02601799927651882 0  0.009510999545454979 0.02655700035393238 0  0.01039099972695112 0.02697600051760674 0  0.02971499972045422 0.05236899852752686 0  0.02547900006175041 0.05404499918222427 0  0.02494600042700768 0.05489400029182434 0  0.02441399917006493 0.05403099954128265 0  0.0260000005364418 0.05490599945187569 0  0.03206500038504601 0.0549129992723465 0  0.0209599994122982 0.03699399903416634 0  0.0200130008161068 0.03681699931621552 0  0.02048199996352196 0.03596299886703491 0  0.01494100037962198 0.04186299815773964 0  0.01393499970436096 0.04181500151753426 0  0.01445399969816208 0.04096699878573418 0  0.0134469997137785 0.04092000052332878 0  0.01292799971997738 0.04176799952983856 0  0.01295800041407347 0.04002099856734276 0  0.01396699994802475 0.040072001516819 0  0.01442200038582087 0.04271199926733971 0  -0.02759099937975407 0.0746539980173111 0  -0.02649799920618534 0.07492899894714355 0  -0.02747399918735027 0.07547099888324738 0  -0.02583000063896179 0.07413099706172943 0  -0.02544100023806095 0.07496199756860733 0  -0.0244159996509552 0.07499899715185165 0  -0.02488500066101551 0.07582300156354904 0  -0.02384800091385841 0.07417900115251541 0  -0.02341100014746189 0.07502199709415436 0  -0.02391899935901165 0.07584899663925171 0  -0.02781799994409084 0.07283499836921692 0  -0.01837499998509884 0.08704899996519089 0  -0.01937399990856647 0.08705200254917145 0  -0.01694200001657009 0.09624899923801422 0  -0.01785700023174286 0.09628599882125854 0  -0.01735099963843822 0.09543400257825851 0  -0.01826100051403046 0.09547500312328339 0  -0.01776699908077717 0.09461700171232224 0  -0.01591799966990948 0.09887599945068359 0  -0.01506400015205145 0.09886699914932251 0  -0.01480199955403805 0.09967999905347824 0  -0.0129770003259182 0.08953599631786346 0  -0.01116000022739172 0.08286699652671814 0  -0.01016599964350462 0.08286699652671814 0  -0.01061899960041046 0.08370400220155716 0  -0.01009800005704165 0.08454000204801559 0  -0.009637000039219856 0.08370400220155716 0  -0.01521600037813187 0.08114399760961533 0  -0.01573400013148785 0.08027900010347366 0  -0.01474899984896183 0.08028899878263474 0  -0.01376200001686811 0.08029700070619583 0  -0.01426700036972761 0.07943399995565414 0  -0.0180249996483326 0.08454599976539612 0  -0.01757499948143959 0.08369699865579605 0  -0.01856900006532669 0.08369100093841553 0  -0.01956400088965893 0.08368799835443497 0  -0.02445800043642521 0.07668600231409073 0  -0.02496399916708469 0.07924500107765198 0  -0.02453400008380413 0.08009599894285202 0  -0.02346899919211864 0.02501999959349632 0  -0.02383000031113625 0.02572000026702881 0  -0.02407700009644032 0.02641399949789047 0  -0.02434300072491169 0.02716200053691864 0  -0.02335000038146973 0.02696700021624565 0  -0.02003899961709976 0.02415799908339977 0  -0.01902000047266483 0.02410699985921383 0  -0.02106199972331524 0.02417699992656708 0  -0.02273200079798698 0.02359299920499325 0  -0.01744399964809418 0.01825799979269505 0  -0.0170620009303093 0.01902000047266483 0  -0.01826000027358532 0.0186500009149313 0  -0.01660599932074547 0.01785499975085258 0  -0.01846799999475479 0.02319700084626675 0  -0.01649199984967709 0.0229
[...]
<PointData  Vectors="velocity"> 
<DataArray  type="Float64"  Name="velocity"  NumberOfComponents="3" format="ascii">7.8599998960271478e-04 7.3799997335299850e-04 0.0000000000000000e+00  5.7199998991563916e-04 5.3999997908249497e-04 0.0000000000000000e+00  7.5599999399855733e-04 0.0000000000000000e+00 0.0000000000000000e+00  1.0209999745711684e-03 0.0000000000000000e+00 0.0000000000000000e+00  7.5599999399855733e-04 0.0000000000000000e+00 0.0000000000000000e+00  1.4799999771639705e-03 1.3249999610707164e-03 0.0000000000000000e+00  1.2769999448210001e-03 1.1370000429451466e-03 0.0000000000000000e+00  1.9369999645277858e-03 1.6329999780282378e-03 0.0000000000000000e+00  9.9900003988295794e-04 8.8700000196695328e-04 0.0000000000000000e+00  2.3620000574737787e-03 2.0029998850077391e-03 0.0000000000000000e+00  -4.8320000059902668e-03 -4.5699998736381531e-04 0.0000000000000000e+00  2.8679999522864819e-03 3.1020001042634249e-03 0.0000000000000000e+00  -1.4890000456944108e-03 9.1900001280009747e-04 0.0000000000000000e+00  3.1810000073164701e-03 3.2420000061392784e-03 0.0000000000000000e+00  -7.5329998508095741e-03 -1.0076000355184078e-02 0.0000000000000000e+00  1.2890000361949205e-03 -5.0220000557601452e-03 0.0000000000000000e+00  1.7590000061318278e-03 -4.7869998961687088e-03 0.0000000000000000e+00  -7.4829999357461929e-03 -2.6374999433755875e-02 0.0000000000000000e+00  -7.5719999149441719e-03 -1.9154999405145645e-02 0.0000000000000000e+00  -7.1419999003410339e-03 -1.9821999594569206e-02 0.0000000000000000e+00  3.7779998965561390e-03 -4.5329998247325420e-03 0.0000000000000000e+00  -7.9751998186111450e-02 -6.5894998610019684e-02 0.0000000000000000e+00  -7.0008002221584320e-02 -5.1137998700141907e-02 0.0000000000000000e+00  -8.4164001047611237e-02 -6.7602001130580902e-02 0.0000000000000000e+00  -3.3785998821258545e-02 -2.4517999961972237e-02 0.0000000000000000e+00  -4.2690999805927277e-02 -3.3743999898433685e-02 0.0000000000000000e+00  -3.6382999271154404e-02 -2.1888999268412590e-02 0.0000000000000000e+00  -3.8653001189231873e-02 -3.6107998341321945e-02 0.0000000000000000e+00  9.9999999747524271e-07 2.3000000510364771e-05 0.0000000000000000e+00  1.8299999646842480e-04 1.8499999714549631e-04 0.0000000000000000e+00  -1.0299999848939478e-04 -3.4000000596279278e-05 0.0000000000000000e+00  -3.9699999615550041e-04 -2.3600000713486224e-04 0.0000000000000000e+00  -9.8999997135251760e-05 -4.4000000343658030e-05 0.0000000000000000e+00  1.1899999663000926e-04 1.5900000289548188e-04 0.0000000000000000e+00  6.3700001919642091e-04 5.5799999972805381e-04 0.0000000000000000e+00  1.5360000543296337e-03 1.2390000047162175e-03 0.0000000000000000e+00  6.4099999144673347e-04 5.5400002747774124e-04 0.0000000000000000e+00  1.0099999781232327e-04 1.0199999815085903e-04 0.0000000000000000e+00  1.8810000037774444e-03 0.0000000000000000e+00 0.0000000000000000e+00  1.5109999803826213e-03 0.0000000000000000e+00 0.0000000000000000e+00  1.2730000307783484e-03 0.0000000000000000e+00 0.0000000000000000e+00  3.1000000308267772e-04 2.9100000392645597e-04 0.0000000000000000e+00  5.3600000683218241e-04 5.0199998077005148e-04 0.0000000000000000e+00  6.2640001997351646e-03 4.6660001389682293e-03 0.0000000000000000e+00  4.3999999761581421e-03 3.4900000318884850e-03 0.0000000000000000e+00  5.0699999555945396e-03 3.8379998877644539e-03 0.0000000000000000e+00  4.9729999154806137e-03 3.8709999062120914e-03 0.0000000000000000e+00  3.4610000438988209e-03 2.8299998957663774e-03 0.0000000000000000e+00  4.4869999401271343e-03 3.4519999753683805e-03 0.0000000000000000e+00  3.2510999590158463e-02 6.6595003008842468e-02 0.0000000000000000e+00  3.3087998628616333e-02 6.5603002905845642e-02 0.0000000000000000e+00  -4.5329998247325420e-03 1.5109999803826213e-03 0.0000000000000000e+00  7.8499998198822141e-04 4.8478998243808746e-02 0.0000000000000000e+00  2.0799999765586108e-04 4.3912999331951141e-02 0.0000000000000000e+00  -4.4430000707507133e-03 4.4121999293565750e-02 0.0000000000000000e+00  -1.0545799881219864e-01 -7.3821999132633209e-02 0.0000000000000000e+00  -1.1119999736547470e-01 -6.3270002603530884e-02 0.0000000000000000e+00  -1.0237099975347519e-01 -6.2783002853393555e-02 0.0000000000000000e+00  -1.0746199637651443e-01 -8.3586998283863068e-02 0.0000000000000000e+00  -1.1591900140047073e-01 -7.1875996887683868e-02 0.0000000000000000e+00  -4.4381998479366302e-02 -9.3285001814365387e-02 0.0000000000000000e+00  -5.2526000887155533e-02 -1.0689400136470795e-01 0.0000000000000000e+00  -4.4121999293565750e-02 -9.0952999889850616e-02 0.0000000000000000e+00  -5.2492000162601471e-02 -1.0403899848461151e-01 0.0000000000000000e+00  1.5124999918043613e-02 3.4455001354217529e-02 0.0000000000000000e+00  1.4921000227332115e-02 3.5335000604391098e-02 0.0000000000000000e+00  1.3890000060200691e-02 3.2386999577283859e-02 0.0000000000000000e+00  -3.0219999607652426e-03 -6.0439999215304852e-03 0.0000000000000000e+00  1.2671000324189663e-02 2.0623000338673592e-02 0.0000000000000000e+00  -3.3080000430345535e-03 -6.8000000901520252e-03 0.0000000000000000e+00  -2.7689998969435692e-03 -6.8000000901520252e-03 0.0000000000000000e+00  -1.7591999843716621e-02 -3.9521001279354095e-02 0.0000000000000000e+00  -2.3698000237345695e-02 -5.3011000156402588e-02 0.0000000000000000e+00  -1.6315000131726265e-02 -3.8706000894308090e-02 0.0000000000000000e+00  -1.2002999894320965e-02 -2.6595000177621841e-02 0.0000000000000000e+00  -1.9221000373363495e-02 -4.0061999112367630e-02 0.0000000000000000e+00  -1.3342999853193760e-02 -2.6445999741554260e-02 0.0000000000000000e+00  6.7540002055466175e-03 1.2345000170171261e-02 0.0000000000000000e+00  9.4429999589920044e-03 1.7892999574542046e-02 0.0000000000000000e+00  9.7599998116493225e-03 2.0139999687671661e-02 0.0000000000000000e+00  -1.0290000354871154e-03 -3.3400000538676977e-03 0.0000000000000000e+00  2.9140000697225332e-03 6.1490000225603580e-03 0.0000000000000000e+00  -2.1689999848604202e-03 -3.0849999748170376e-03 0.0000000000000000e+00  -1.5452300012111664e-01 -1.2119700014591217e-01 0.0000000000000000e+00  -1.5168200433254242e-01 -1.0822299867868423e-01 0.0000000000000000e+00  -1.5413500368595123e-01 -1.2008000165224075e-01 0.0000000000000000e+00  -4.4286001473665237e-02 -1.1747399717569351e-01 0.0000000000000000e+00  -2.9851000756025314e-02 -1.0038399696350098e-01 0.0000000000000000e+00  -3.9654999971389771e-02 -9.8002001643180847e-02 0.0000000000000000e+00  1.5109999803826213e-03 -1.5109999803826213e-03 0.0000000000000000e+00  1.7419999931007624e-03 -1.5109999803826213e-03 0.0000000000000000e+00  1.2690000003203750e-03 -1.2690000003203750e-03 0.0000000000000000e+00  1.0169999441131949e-03 -1.0169999441131949e-03 0.0000000000000000e+00  7.5599999399855733e-04 -7.5599999399855733e-04 0.0000000000000000e+00  1.3709999620914459e-03 1.1599999852478504e-03 0.0000000000000000e+00  7.5599999399855733e-04 -7.5599999399855733e-04 0.0000000000000000e+00  1.2720000231638551e-03 1.1670000385493040e-03 0.0000000000000000e+00  2.6549999602138996e-03 2.2100000642240047e-03 0.0000000000000000e+00  1.6609999584034085e-03 1.6299999551847577e-03 0.0000000000000000e+00  6.9849998690187931e-03 5.2240001969039440e-03 0.0000000000000000e+00  5.2189999260008335e-03 4.0000001899898052e-03 0.0000000000000000e+00  5.5049997754395008e-03 4.3870001100003719e-03 0.0000000000000000e+00  4.5369998551905155e-03 3.8209999911487103e-03 0.0000000000000000e+00  5.7129999622702599e-03 4.7510000877082348e-03 0.0000000000000000e+00  4.0310001932084560e-03 3.2770000398159027e-03 0.0000000000000000e+00  7.0009999908506870e-03 5.0389999523758888e-03 0.0000000000000000e+00  5.1389997825026512e-03 3.8040000945329666e-03 0.0000000000000000e+00  6.9499998353421688e-03 4.9879997968673706e-03 0.0000000000000000e+00  7.1000000461935997e-03 5.0400001928210258e-03 0.0000000000000000e+00  4.8409998416900635e-03 4.2159999720752239e-03 0.0000000000000000e+00  1.2249999679625034e-02 7.9469997435808182e-03 0.0000000000000000e+00  1.1620000004768372e-02 7.9370001330971718e-03 0.0000000000000000e+00  1.3985999859869480e-02 1.0687000118196011e-02 0.0000000000000000e+00  2.1578000858426094e-02 1.2693000026047230e-02 0.0000000000000000e+00  2.2688999772071838e-02 1.3602999970316887e-02 0.0000000000000000e+00  2.0552000030875206e-02 1.4743999578058720e-02 0.0000000000000000e+00  5.1420000381767750e-03 3.8799999747425318e-03 0.0000000000000000e+00  -3.9999999899009708e-06 -3.6289999261498451e-03 0.0000000000000000e+00  1.0799999581649899e-03 -2.1499999274965376e-04 0.0000000000000000e+00  -8.7029999122023582e-03 -5.4130000062286854e-03 0.0000000000000000e+00  1.9910000264644623e-03 -1.5109999803826213e-03 0.0000000000000000e+00  2.2670000325888395e-03 -1.5109999803826213e-03 0.0000000000000000e+00  2.0912999287247658e-02 5.5155999958515167e-02 0.0000000000000000e+00  2.0890999585390091e-02 5.1054000854492188e-02 0.0000000000000000e+00  1.8479999154806137e-02 5.2159998565912247e-02 0.0000000000000000e+00  1.8107000738382339e-02 5.6350000202655792e-02 0.0000000000000000e+00  1.0234399884939194e-01 7.7977001667022705e-02 0.0000000000000000e+00  9.8003998398780823e-02 8.8514000177383423e-02 0.0000000000000000e+00  9.7804002463817596e-02 8.6368001997470856e-02 0.0000000000000000e+00  1.3970999978482723e-02 2.2538999095559120e-02 0.0000000000000000e+00  -5.5660000070929527e-03 -2.7799999224953353e-04 0.0000000000000000e+00  -5.8120000176131725e-03 -5.2300002425909042e-04 0.0000000000000000e+00  1.7371000722050667e-02 3.5287998616695404e-02 0.0000000000000000e+00  -6.8000000901520252e-03 -2.5309999473392963e-03 0.0000000000000000e+00  -6.8000000901520252e-03 -2.7679998893290758e-03 0.0000000000000000e+00  2.4762999266386032e-02 6.0646999627351761e-02 0.0000000000000000e+00  3.0647000297904015e-02 6.8066999316215515e-02 0.0000000000000000e+00  2.5675000622868538e-02 5.7663001120090485e-02 0.0000000000000000e+00  2.8570000082254410e-02 5.3580000996589661e-02 0.0000000000000000e+00  2.1494999527931213e-02 4.6762000769376755e-02 0.0000000000000000e+00  3.3872000873088837e-02 6.4018003642559052e-02 0.0000000000000000e+00  3.7450999021530151e-02 7.4897997081279755e-02 0.0000000000000000e+00  3.5509999841451645e-02 6.1223000288009644e-02 0.0000000000000000e+00  3.6586001515388489e-02 5.9312999248504639e-02 0.0000000000000000e+00  4.2314998805522919e-02 6.8488001823425293e-02 0.0000000000000000e+00  4.3643999844789505e-02 6.6180996596813202e-02 0.0000000000000000e+00  9.0579995885491371e-03 5.8671001344919205e-02 0.0000000000000000e+00  7.9129999503493309e-03 6.2185000628232956e-02 0.0000000000000000e+00  1.3698999769985676e-02 6.3612997531890869e-02 0.0000000000000000e+00  1.3288999907672405e-02 6.7303001880645752e-02 0.0000000000000000e+00  1.2769999448210001e-03 -1.7450000159442425e-03 0.0000000000000000e+00  1.0239999974146485e-03 -1.9980000797659159e-03 0.0000000000000000e+00  1.8060000147670507e-03 -3.9999998989515007e-04 0.0000000000000000e+00  3.2939999364316463e-03 8.6099997861310840e-04 0.0000000000000000e+00  4.9242999404668808e-02 7.5121000409126282e-02 0.0000000000000000e+00  7.6341003179550171e-02 9.6040003001689911e-02 0.0000000000000000e+00  7.9237997531890869e-02 9.9885001778602600e-02 0.0000000000000000e+00  8.1734001636505127e-02 9.4870999455451965e-02 0.0000000000000000e+00  7.3934003710746765e-02 1.0072900354862213e-01 0.0000000000000000e+00  3.5335998982191086e-02 7.7766001224517822e-02 0.0000000000000000e+00  2.4614999070763588e-02 1.3991000130772591e-02 0.0000000000000000e+00  2.7235999703407288e-02 1.4720000326633453e-02 0.0000000000000000e+00  2.1254999563097954e-02 1.1460999958217144e-02 0.0000000000000000e+00  7.1794003248214722e-02 2.5414999574422836e-02 0.0000000000000000e+00  7.2709999978542328e-02 2.2827999666333199e-02 0.0000000000000000e+00  6.6968999803066254e-02 2.3602999746799469e-02 0.0000000000000000e+00  6.7730002105236053e-02 2.1541999652981758e-02 0.0000000000000000e+00  7.3105998337268829e-02 2.0331000909209251e-02 0.0000000000000000e+00  6.3700996339321136e-02 2.0145999267697334e-02 0.0000000000000000e+00  6.2587000429630280e-02 2.1825000643730164e-02 0.0000000000000000e+00  7.6844997704029083e-02 2.4684000760316849e-02 0.0000000000000000e+00  3.5220000427216291e-03 -4.5329998247325420e-03 0.0000000000000000e+00  -8.0080004408955574e-03 -1.9546000286936760e-02 0.0000000000000000e+00  3.2879998907446861e-03 -4.5329998247325420e-03 0.0000000000000000e+00  -8.6610000580549240e-03 -2.7650000527501106e-02 0.0000000000000000e+00  -8.8130002841353416e-03 -2.8537999838590622e-02 0.0000000000000000e+00  -1.1024000123143196e-02 -3.8844998925924301e-02 0.0000000000000000e+00  -1.0235000401735306e-02 -3.1068999320268631e-02 0.0000000000000000e+00  -1.4186000451445580e-02 -4.8799999058246613e-02 0.0000000000000000e+00  -1.5092999674379826e-02 -5.0397999584674835e-02 0.0000000000000000e+00  -1.3232000172138214e-02 -4.1241999715566635e-02 0.0000000000000000e+00  3.7779998965561390e-03 -4.5329998247325420e-03 0.0000000000000000e+00  -3.4432999789714813e-02 -1.7664000391960144e-02 0.0000000000000000e+00  -2.4961000308394432e-02 -9.8130004480481148e-03 0.0000000000000000e+00  1.3368000276386738e-02 3.4154001623392105e-02 0.0000000000000000e+00  1.5780000016093254e-02 3.7992998957633972e-02 0.0000000000000000e+00  1.2149999849498272e-02 3.4416001290082932e-02 0.0000000000000000e+00  1.5141000039875507e-02 3.7099998444318771e-02 0.0000000000000000e+00  8.8740000501275063e-03 3.3208999782800674e-02 0.0000000000000000e+00  1.3682999648153782e-02 3.3263001590967178e-02 0.0000000000000000e+00  1.1756000109016895e-02 2.8098000213503838e-02 0.0000000000000000e+00  1.1944999918341637e-02 2.7215000241994858e-02 0.0000000000000000e+00  -7.4454002082347870e-02 -5.3959999233484268e-02 0.0000000000000000e+00  -1.1070299893617630e-01 -1.4235000312328339e-01 0.0000000000000000e+00  -1.1662700027227402e-01 -1.5356400609016418e-01 0.0000000000000000e+00  -1.1709199845790863e-01 -1.4290900528430939e-01 0.0000000000000000e+00  -1.2354700267314911e-01 -1.4345000684261322e-01 0.0000000000000000e+00  -1.2379600107669830e-01 -1.5449899435043335e-01 0.0000000000000000e+00  -7.3941998183727264e-02 -1.0984399914741516e-01 0.0000000000000000e+00  -6.9950997829437256e-02 -1.1135099828243256e-01 0.0000000000000000e+00  -7.7354997396469116e-02 -1.2210699915885925e-01 0.0000000000000000e+00  -8.4025003015995026e-02 -1.3247700035572052e-01 0.0000000000000000e+00  -7.6268002390861511e-02 -1.3289900124073029e-01 0.0000000000000000e+00  -4.7690000385046005e-02 -4.6027999371290207e-02 0.0000000000000000e+00  -5.6460998952388763e-02 -5.9686999768018723e-02 0.0000000000000000e+00  -4.7398000955581665e-02 -4.9260001629590988e-02 0.0000000000000000e+00  -3.7535998970270157e-02 -3.8621999323368073e-02 0.0000000000000000e+00  -1.1958000250160694e-02 -3.2402999699115753e-02 0.0000000000000000e+00  -9.0880002826452255e-03 -1.7356999218463898e-02 0.0000000000000000e+00  -9.7620002925395966e-03 -1.6959000378847122e-02 0.0000000000000000e+00  2.0769999828189611e-03 0.0000000000000000e+00 0.0000000000000000e+00  2.2670000325888395e-03 0.0000000000000000e+00 0.0000000000000000e+00  2.4429999757558107e-03 -1.7600000137463212e-04 0.0000000000000000e+00  2.6320000179111958e-03 -3.6599999293684959e-04 0.0000000000000000e+00  -2.4500000290572643e-04 -1.2899999273940921e-04 0.0000000000000000e+00  1.3810000382363796e-03 1.1650000233203173e-03 0.0000000000000000e+00  2.4490000214427710e-03 1.9600000232458115e-03 0.0000000000000000e+00  4.8200000310316682e-04 4.3399998685345054e-04 0.0000000000000000e+00  1.6909999540075660e-03 0.0000000000000000e+00 0.0000000000000000e+00  7.5599999399855733e-04 -2.3900000087451190e-04 0.0000000000000000e+00  1.1849999427795410e-03 1.0659999679774046e-03 0.0000000000000000e+00  7.5599999399855733e-04 0.0000000000000000e+00 0.0000000000000000e+00  7.5599999399855733e-04 -4.8399998922832310e-04 0.0000000000000000e+00  3.1349998898804188e-03 2.5180000811815262e-03 0.0000000000000000e+00  6.1889998614788055e-03 4.5380000956356525e-03 0.0000000000000000e+00  7.1600000374019146e-03 4.9660000950098038e-03 0.0000000000000000e+00  5.3500002250075340e-03 3.8709999062120914e-03 0.0000000000000000e+00  9.9130002781748772e-03 4.9310000613331795e-03 0.0000000000000000e+00  1.0813999921083450e-02 4.4639999978244305e-03 0.0000000000000000e+00  8.1930002197623253e-03 1.1980000417679548e-03 0.0000000000000000e+00  7.0329997688531876e-03 5.5229999125003815e-03 0.0000000000000000e+00  1.1096999980509281e-02 8.3520002663135529e-03 0.0000000000000000e+00  1.3597999699413776e-02 9.9910004064440727e-03 0.0000000000000000e+00  1.4526999555528164e-02 1.0173000395298004e-02 0.0000000000000000e+00  1.0192999616265297e-02 7.9680001363158226e-03 0.0000000000000000e+00  8.4939999505877495e-03 6.8080001510679722e-03 0.0000000000000000e+00  1.6302000731229782e-02 1.1710000224411488e-02 0.0000000000000000e+00  1.8340000882744789e-02 1.3179999776184559e-02 0.0000000000000000e+00  1.8577000126242638e-02 1.3181000016629696e-02 0.0000000000000000e+00  1.1506999842822552e-02 4.6682000160217285e-02 0.0000000000000000e+00  1.0064999572932720e-02 4.0754999965429306e-02 0.0000000000000000e+00  7.2539998218417168e-03 4.2073000222444534e-02 0.0000000000000000e+00  2.7273999527096748e-02 7.2553999722003937e-02 0.0000000000000000e+00  2.3295000195503235e-02 6.8833000957965851e-02 0.0000000000000000e+00  2.3346999660134315e-02 7.2783999145030975e-02 0.0000000000000000e+00  3.7115000188350677e-02 1.0223899781703949e-01 0.0000000000000000e+00  3.6596000194549561e-02 1.0737100243568420e-01 0.0000000000000000e+00  3.9701998233795166e-02 1.0616499930620193e-01 0.0000000000000000e+00  -4.5329998247325420e-03 1.5109999803826213e-03 0.0000000000000000e+00  -1.5021000057458878e-02 4.2247999459505081e-02 0.0000000000000000e+00  -2.0624000579118729e-02 4.0640998631715775e-02 0.0000000000000000e+00  -1.4069999568164349e-02 4.7587998211383820e-02 0.0000000000000000e+00  -8.1120003014802933e-03 4.9352001398801804e-02 0.0000000000000000e+00  -1.1235999874770641e-02 4.3210998177528381e-02 0.0000000000000000e+00  -7.5570000335574150e-03 4.4054001569747925e-02 0.0000000000000000e+00  1.2245999649167061e-02 7.0326000452041626e-02 0.0000000000000000e+00  1.8606999889016151e-02 7.2160996496677399e-02 0.0000000000000000e+00  1.7730999737977982e-02 7.5222000479698181e-02 0.0000000000000000e+00  2.3617999628186226e-02 7.6921999454498291e-02 0.0000000000000000e+00  4.5079998672008514e-03 5.3328000009059906e-02 0.0000000000000000e+00  -2.0349998958408833e-03 5.0560001283884048e-02 0.0000000000000000e+00  -2.4669999256730080e-03 5.4611001163721085e-02 0.0000000000000000e+00  -6.9050001911818981e-03 5.5077001452445984e-02 0.0000000000000000e+00  -8.1270001828670502e-03 5.8673001825809479e-02 0.0000000000000000e+00  -1.1820000363513827e-03 6.1788000166416168e-02 0.0000000000000000e+00  3.2669999636709690e-03 5.6685000658035278e-02 0.0000000000000000e+00  -1.0766100138425827e-01 -1.0203500092029572e-01 0.0000000000000000e+00  -1.0592500120401382e-01 -1.0933899879455566e-01 0.0000000000000000e+00  -1.1843299865722656e-01 -1.0210300236940384e-01 0.0000000000000000e+00  -1.2421000003814697e-01 -7.5166001915931702e-02 0.0000000000000000e+00  -1.1478299647569656e-01 -8.2441002130508423e-02 0.0000000000000000e+00  -1.2014400213956833e-01 -8.6695000529289246e-02 0.0000000000000000e+00  -1.0784599930047989e-01 -9.2969000339508057e-02 0.0000000000000000e+00  -2.9479000717401505e-02 -6.5971001982688904e-02 0.0000000000000000e+00  -2.1913999691605568e-02 -5.1242001354694366e-02 0.0000000000000000e+00  -2.2732999175786972e-02 -5.2255999296903610e-02 0.0000000000000000e+00  -3.0417999252676964e-02 -6.7243002355098724e-02 0.0000000000000000e+00  -5.2735999226570129e-02 -1.0924299806356430e-01 0.0000000000000000e+00  -9.4209998846054077e-02 -1.4948500692844391e-01 0.0000000000000000e+00  -9.1113001108169556e-02 -1.5328399837017059e-01 0.0000000000000000e+00  -1.0261099785566330e-01 -1.6199100017547607e-01 0.0000000000000000e