<?xml version="1.0"?>
<VTKFile type="UnstructuredGrid"  version="0.1"  >
<UnstructuredGrid>
<Piece  NumberOfPoints="6340" NumberOfCells="12376">
<Points>
<DataArray  type="Float64"  NumberOfComponents="3"  format="ascii">-0.01921599917113781 0.02066699974238873 0  -0.01980599947273731 0.02128900028765202 0  -0.02005000039935112 0.02032000012695789 0  -0.02050299942493439 0.02099799923598766 0  -0.01945799961686134 0.01975199952721596 0  -0.01904099993407726 0.02153800055384636 0  -0.01945899985730648 0.02223999984562397 0  -0.01901100017130375 0.02306300029158592 0  -0.01983699947595596 0.02292600087821484 0  -0.0185989998281002 0.02226700074970722 0  -0.00901500042527914 0.01757100038230419 0  -0.009616999886929989 0.01848600059747696 0  -0.009952000342309475 0.01754700019955635 0  -0.01056000031530857 0.01850200071930885 0  -0.02388199977576733 0.0707160010933876 0  -0.02476599998772144 0.07096599787473679 0  -0.02491199970245361 0.07021299749612808 0  -0.02409300021827221 0.06457900255918503 0  -0.02472499944269657 0.06515000015497208 0  -0.0248589999973774 0.06429100036621094 0  -0.02558000013232231 0.06458000093698502 0  -0.01169999968260527 0.08313299715518951 0  -0.01252700015902519 0.08290400356054306 0  -0.0119810001924634 0.08239000290632248 0  -0.01832699961960316 0.07708399742841721 0  -0.01739900000393391 0.07737000286579132 0  -0.01787200011312962 0.07793299853801727 0  -0.01785900071263313 0.07651299983263016 0  -0.02123899944126606 0.02414100058376789 0  -0.02048500068485737 0.02436600066721439 0  -0.02076599933207035 0.02503599971532822 0  -0.0210110004991293 0.02572000026702881 0  -0.02153399959206581 0.02481899969279766 0  -0.02000500075519085 0.02526599913835526 0  -0.01969699934124947 0.02452000044286251 0  -0.01889500021934509 0.02465200051665306 0  -0.01921699941158295 0.02540400065481663 0  -0.02095399983227253 0.02345200069248676 0  -0.02177600003778934 0.02326400019228458 0  -0.02133999951183796 0.02225000038743019 0  -0.02093400061130524 0.02164199948310852 0  -0.02063900046050549 0.02270600013434887 0  -0.02022100053727627 0.02200499922037125 0  -0.01620100066065788 0.02199899964034557 0  -0.01669500023126602 0.02112199924886227 0  -0.0157880000770092 0.02109899930655956 0  -0.01703800074756145 0.02211499959230423 0  -0.01786199957132339 0.02209899947047234 0  -0.0173920001834631 0.02298299968242645 0  0.04018500074744225 0.07553599774837494 0  0.03991999849677086 0.07466699928045273 0  0.04114599898457527 0.07470999658107758 0  0.04240300133824348 0.0856110006570816 0  0.04314199835062027 0.08581200242042542 0  0.04206100106239319 0.08628199994564056 0  0.02465100027620792 0.0938429981470108 0  0.02486299909651279 0.09315600246191025 0  0.02571599930524826 0.09337999671697617 0  0.02367299981415272 0.09426800161600113 0  0.02388600073754787 0.09343899786472321 0  -0.007404000032693148 0.09094399958848953 0  -0.00662099989131093 0.09121199697256088 0  -0.007207999937236309 0.09170600026845932 0  -0.006411999929696321 0.09197899699211121 0  -0.01718400046229362 0.08942099660634995 0  -0.0174579992890358 0.08879099786281586 0  -0.01652700081467628 0.0891060009598732 0  -0.01804200001060963 0.08936399966478348 0  -0.01469899993389845 0.09479899704456329 0  -0.01500700041651726 0.09543299674987793 0  -0.01538100000470877 0.09474900364875793 0  -0.0105189997702837 0.08935400098562241 0  -0.009778999723494053 0.08955900371074677 0  -0.01035999972373247 0.0900610014796257 0  -0.01127499993890524 0.08915100246667862 0  -0.01069399993866682 0.08865000307559967 0  -0.01145000010728836 0.08844699710607529 0  -0.01376799959689379 0.09041599929332733 0  -0.01431099977344275 0.0908999964594841 0  -0.01456299982964993 0.09019400179386139 0  -0.01261700037866831 0.08944299817085266 0  -0.01340300031006336 0.08923699706792831 0  -0.01281499955803156 0.08874399960041046 0  0.01086900010704994 0.08877400308847427 0  0.01187799964100122 0.08865399658679962 0  0.01125499978661537 0.08932700008153915 0  0.007592999842017889 0.07776699960231781 0  0.008089999668300152 0.07694599777460098 0  0.008600999601185322 0.07764700055122375 0  -0.00877000018954277 0.01665000058710575 0  -0.008012999780476093 0.0168089997023344 0  -0.009581999853253365 0.01658900082111359 0  -0.01042999979108572 0.01652600057423115 0  -0.01381999999284744 0.01669999957084656 0  -0.01401299983263016 0.0178190004080534 0  -0.01460300013422966 0.01694200001657009 0  -0.01326499972492456 0.01758299954235554 0  -0.01325500011444092 0.01863599941134453 0  -0.01249799970537424 0.01771000027656555 0  -0.01272500026971102 0.02159499935805798 0  -0.0132020004093647 0.02064800076186657 0  -0.01233599986881018 0.02063599973917007 0  -0.01193299982696772 0.01972799934446812 0  -0.01139399968087673 0.02055500075221062 0  -0.01281700003892183 0.0196480005979538 0  -0.0135939996689558 0.0216630008071661 0  -0.0149320000782609 0.02095199935138226 0  -0.0153219997882843 0.02193300053477287 0  -0.0144640002399683 0.02180000022053719 0  -0.01005300041288137 0.01943499967455864 0  -0.01138599961996078 0.03070399910211563 0  -0.01188100036233664 0.02984599955379963 0  -0.01097299996763468 0.02973799966275692 0  -0.006364000029861927 0.02909299917519093 0  -0.006794000044465065 0.03008300065994263 0  -0.007290999870747328 0.02923399955034256 0  -0.00915099959820509 0.0194339994341135 0  -0.006874999962747097 0.01867800019681454 0  -0.007778000086545944 0.01859099976718426 0  -0.007091999985277653 0.01782700046896935 0  -0.007195000071078539 0.01697999984025955 0  -0.006289999932050705 0.01717000082135201 0  0.04447900131344795 0.08234500139951706 0  0.04523599892854691 0.08171699941158295 0  0.04509099945425987 0.08289600163698196 0  0.04408400133252144 0.08315800130367279 0  0.01415299996733665 0.05721199885010719 0  0.0151199996471405 0.0569240003824234 0  0.01474700029939413 0.05787700042128563 0  0.02576000057160854 0.04012500122189522 0  0.0261170007288456 0.03902300074696541 0  0.02662700042128563 0.03962700068950653 0  0.028158999979496 0.04369499906897545 0  0.0289670005440712 0.04286399856209755 0  0.0293589998036623 0.04350399971008301 0  0.02821899950504303 0.04704299941658974 0  0.0273279994726181 0.0473099984228611 0  0.02775200083851814 0.0463079996407032 0  0.02726300060749054 0.04561800137162209 0  0.0282170008867979 0.04530100151896477 0  0.02682399936020374 0.04660899937152863 0  0.02640699967741966 0.04759800061583519 0  0.02629500068724155 0.0459510013461113 0  0.02570899948477745 0.04532999917864799 0  0.02531900070607662 0.04627399891614914 0  0.0247189998626709 0.04564600065350533 0  0.04189100116491318 0.08450599759817123 0  0.04084499925374985 0.08463200181722641 0  0.04148000106215477 0.08396799862384796 0  0.04045699909329414 0.08406800031661987 0  0.005268000066280365 0.02271999977529049 0  0.005923000164330006 0.02315099909901619 0  0.005317999981343746 0.02382100000977516 0  0.006025999784469604 0.02413900010287762 0  0.02433899976313114 0.04658899828791618 0  0.02065799944102764 0.04938599839806557 0  0.02028200030326843 0.05033700168132782 0  0.01968099921941757 0.04967899993062019 0  0.02125399932265282 0.05004300177097321 0  0.02693499997258186 0.0482960008084774 0  0.01515000034123659 0.03338500112295151 0  0.01435799989849329 0.03331800177693367 0  0.01468299981206656 0.03237299993634224 0  0.01056400034576654 0.03916399925947189 0  0.009751999750733376 0.03921699896454811 0  0.01011400017887354 0.03827600181102753 0  0.009301000274717808 0.03832900151610374 0  0.008938999846577644 0.03926799818873405 0  0.008852999657392502 0.03743999823927879 0  0.009664000011980534 0.03739000111818314 0  0.01020199991762638 0.04010500013828278 0  -0.02551599964499474 0.06539200246334076 0  -0.02450600080192089 0.06595899909734726 0  -0.02545700035989285 0.06613499671220779 0  -0.02382799983024597 0.06546700000762939 0  -0.02351499907672405 0.06630399823188782 0  -0.02255499921739101 0.06664299964904785 0  -0.02304800041019917 0.06721600145101547 0  -0.0219700001180172 0.06610299646854401 0  -0.02161199972033501 0.06696400046348572 0  -0.02214200049638748 0.06752800196409225 0  -0.02560400031507015 0.06374199688434601 0  -0.01742500066757202 0.0787699967622757 0  -0.01834199950098991 0.07849399745464325 0  -0.01722799986600876 0.08624099940061569 0  -0.01806100085377693 0.086046002805233 0  -0.01750100031495094 0.08552800118923187 0  -0.01833000034093857 0.08533699810504913 0  -0.01777599938213825 0.08480899780988693 0  -0.01659700088202953 0.08845300227403641 0  -0.01581699959933758 0.08865000307559967 0  -0.01567200012505054 0.08931899815797806 0  -0.01282200030982494 0.08214999735355377 0  -0.01044499967247248 0.07738900184631348 0  -0.0095210000872612 0.07767499983310699 0  -0.01000699959695339 0.07822799682617188 0  -0.009615000337362289 0.07903899997472763 0  -0.009111000224947929 0.07849700003862381 0  -0.01417800039052963 0.07472900301218033 0  -0.01464200019836426 0.07382799685001373 0  -0.01371499989181757 0.07413099706172943 0  -0.01278700027614832 0.07443299889564514 0  -0.01323799975216389 0.0735350027680397 0  -0.01692900061607361 0.0768050029873848 0  -0.01647399924695492 0.07621700316667557 0  -0.01740700006484985 0.07591699808835983 0  -0.01834299974143505 0.07561899721622467 0  -0.02269800007343292 0.06809200346469879 0  -0.0232939999550581 0.07016400247812271 0  -0.0229129996150732 0.07103399932384491 0  -0.02200699970126152 0.02380000054836273 0  -0.02222999930381775 0.02432000078260899 0  -0.02236700057983398 0.02482100017368793 0  -0.02251599915325642 0.02536099962890148 0  -0.02174600027501583 0.02553199976682663 0  -0.01936499960720539 0.02378500066697598 0  -0.01855600066483021 0.02390800043940544 0  -0.0201799999922514 0.02363199926912785 0  -0.02155099995434284 0.02274199947714806 0  -0.01765899918973446 0.01828099973499775 0  -0.01728899963200092 0.01904300041496754 0  -0.01833000034093857 0.01867000013589859 0  -0.01697099953889847 0.0178810004144907 0  -0.0181719996035099 0.02307100035250187 0  -0.016572
[...]
<PointData  Vectors="velocity"> 
<DataArray  type="Float64"  Name="velocity"  NumberOfComponents="3" format="ascii">3.7440001033246517e-03 3.4499999601393938e-03 0.0000000000000000e+00  3.9079999551177025e-03 3.6110000219196081e-03 0.0000000000000000e+00  3.0219999607652426e-03 -1.5109999803826213e-03 0.0000000000000000e+00  3.2879998907446861e-03 -1.7760000191628933e-03 0.0000000000000000e+00  2.7620000764727592e-03 -9.9099997896701097e-04 0.0000000000000000e+00  7.5630000792443752e-03 6.6349999979138374e-03 0.0000000000000000e+00  8.6519997566938400e-03 7.5260000303387642e-03 0.0000000000000000e+00  1.3600000180304050e-02 1.1138999834656715e-02 0.0000000000000000e+00  9.1239996254444122e-03 7.8570004552602768e-03 0.0000000000000000e+00  1.2144999578595161e-02 1.0060000233352184e-02 0.0000000000000000e+00  6.6289999522268772e-03 -6.4400001429021358e-04 0.0000000000000000e+00  8.6639998480677605e-03 6.3800002681091428e-04 0.0000000000000000e+00  5.4790000431239605e-03 -3.7000001611886546e-05 0.0000000000000000e+00  8.2539999857544899e-03 1.6740000573918223e-03 0.0000000000000000e+00  -8.9279999956488609e-03 -3.6079999059438705e-02 0.0000000000000000e+00  4.8000002279877663e-03 -1.2844000011682510e-02 0.0000000000000000e+00  5.0349999219179153e-03 -1.2844000011682510e-02 0.0000000000000000e+00  6.0899998061358929e-04 -3.8527999073266983e-02 0.0000000000000000e+00  -1.2009999481961131e-03 -3.4260999411344528e-02 0.0000000000000000e+00  -1.3129999861121178e-03 -3.3833999186754227e-02 0.0000000000000000e+00  6.0439999215304852e-03 -1.2844000011682510e-02 0.0000000000000000e+00  -2.4808999150991440e-02 -6.2985002994537354e-02 0.0000000000000000e+00  -2.5010999292135239e-02 -6.0862999409437180e-02 0.0000000000000000e+00  -2.5141999125480652e-02 -6.0587000101804733e-02 0.0000000000000000e+00  -2.2424999624490738e-02 -4.9070000648498535e-02 0.0000000000000000e+00  -2.4438999593257904e-02 -5.1451001316308975e-02 0.0000000000000000e+00  -2.2780999541282654e-02 -4.8482999205589294e-02 0.0000000000000000e+00  -2.2919999435544014e-02 -5.2195999771356583e-02 0.0000000000000000e+00  4.5469999313354492e-03 3.9880000986158848e-03 0.0000000000000000e+00  8.3259996026754379e-03 6.9769998081028461e-03 0.0000000000000000e+00  8.4950001910328865e-03 7.0340000092983246e-03 0.0000000000000000e+00  7.0079998113214970e-03 5.7230000384151936e-03 0.0000000000000000e+00  3.7970000412315130e-03 3.2870001159608364e-03 0.0000000000000000e+00  1.2759000062942505e-02 1.0077999904751778e-02 0.0000000000000000e+00  1.2268999591469765e-02 9.8130004480481148e-03 0.0000000000000000e+00  1.6905000433325768e-02 1.2877999804913998e-02 0.0000000000000000e+00  1.7092000693082809e-02 1.2880000285804272e-02 0.0000000000000000e+00  3.7360000424087048e-03 3.3209999091923237e-03 0.0000000000000000e+00  4.1479999199509621e-03 -3.0060000717639923e-03 0.0000000000000000e+00  3.7779998965561390e-03 -2.2670000325888395e-03 0.0000000000000000e+00  3.5399999469518661e-03 -2.0290000829845667e-03 0.0000000000000000e+00  4.0359999984502792e-03 3.6490000784397125e-03 0.0000000000000000e+00  4.8619997687637806e-03 4.4450000859797001e-03 0.0000000000000000e+00  1.9719999283552170e-02 1.4107000082731247e-02 0.0000000000000000e+00  1.3935999944806099e-02 1.0755999945104122e-02 0.0000000000000000e+00  1.6594000160694122e-02 1.1951000429689884e-02 0.0000000000000000e+00  1.7409000545740128e-02 1.3160999864339828e-02 0.0000000000000000e+00  1.4282999560236931e-02 1.1401000432670116e-02 0.0000000000000000e+00  2.0077999681234360e-02 1.4979000203311443e-02 0.0000000000000000e+00  6.1783999204635620e-02 1.0042399913072586e-01 0.0000000000000000e+00  5.8586999773979187e-02 9.9624998867511749e-02 0.0000000000000000e+00  -5.7680001482367516e-03 5.5280001834034920e-03 0.0000000000000000e+00  7.2011999785900116e-02 1.2450999766588211e-01 0.0000000000000000e+00  6.7438997328281403e-02 1.1136999726295471e-01 0.0000000000000000e+00  7.5282000005245209e-02 1.3343599438667297e-01 0.0000000000000000e+00  -2.7292000129818916e-02 1.2185899913311005e-01 0.0000000000000000e+00  -1.7774999141693115e-02 1.3209700584411621e-01 0.0000000000000000e+00  -1.4568000100553036e-02 1.3633300364017487e-01 0.0000000000000000e+00  -3.8864001631736755e-02 1.0831800103187561e-01 0.0000000000000000e+00  -2.7762999758124352e-02 1.2040600180625916e-01 0.0000000000000000e+00  -4.6000000089406967e-02 -8.5877999663352966e-02 0.0000000000000000e+00  -5.0041001290082932e-02 -8.7039001286029816e-02 0.0000000000000000e+00  -5.3594999015331268e-02 -8.4994003176689148e-02 0.0000000000000000e+00  -5.8378998190164566e-02 -8.6214996874332428e-02 0.0000000000000000e+00  -2.4647999554872513e-02 -4.4831998646259308e-02 0.0000000000000000e+00  -2.2915000095963478e-02 -4.3898999691009521e-02 0.0000000000000000e+00  -2.4094000458717346e-02 -4.8301998525857925e-02 0.0000000000000000e+00  -1.7750000115483999e-03 -1.7885999754071236e-02 0.0000000000000000e+00  -2.9400000348687172e-02 -4.0036000311374664e-02 0.0000000000000000e+00  -7.6060001738369465e-03 -1.9642999395728111e-02 0.0000000000000000e+00  -6.7980000749230385e-03 -1.9642999395728111e-02 0.0000000000000000e+00  -2.7420999482274055e-02 -7.7255003154277802e-02 0.0000000000000000e+00  -2.9149999842047691e-02 -7.9953998327255249e-02 0.0000000000000000e+00  -3.3939998596906662e-02 -7.7832996845245361e-02 0.0000000000000000e+00  -2.5854000821709633e-02 -7.4106000363826752e-02 0.0000000000000000e+00  -2.4921000003814697e-02 -7.6526999473571777e-02 0.0000000000000000e+00  -2.4235000833868980e-02 -7.3500998318195343e-02 0.0000000000000000e+00  -3.1038999557495117e-02 -6.1106998473405838e-02 0.0000000000000000e+00  -3.0961999669671059e-02 -5.7137001305818558e-02 0.0000000000000000e+00  -2.8996000066399574e-02 -5.7340998202562332e-02 0.0000000000000000e+00  -2.7210000902414322e-02 -6.8084999918937683e-02 0.0000000000000000e+00  -2.5445999577641487e-02 -6.4231999218463898e-02 0.0000000000000000e+00  -2.3254999890923500e-02 -6.7250996828079224e-02 0.0000000000000000e+00  -4.5369998551905155e-03 3.7551999092102051e-02 0.0000000000000000e+00  3.1999999919207767e-05 5.0154000520706177e-02 0.0000000000000000e+00  -1.0715000331401825e-02 3.6595001816749573e-02 0.0000000000000000e+00  1.2284000217914581e-01 9.2340998351573944e-02 0.0000000000000000e+00  1.2528899312019348e-01 9.9251002073287964e-02 0.0000000000000000e+00  1.2839199602603912e-01 9.9243998527526855e-02 0.0000000000000000e+00  0.0000000000000000e+00 0.0000000000000000e+00 0.0000000000000000e+00  0.0000000000000000e+00 0.0000000000000000e+00 0.0000000000000000e+00  0.0000000000000000e+00 0.0000000000000000e+00 0.0000000000000000e+00  0.0000000000000000e+00 0.0000000000000000e+00 0.0000000000000000e+00  0.0000000000000000e+00 0.0000000000000000e+00 0.0000000000000000e+00  3.4499999601393938e-03 2.2960000205785036e-03 0.0000000000000000e+00  2.4799999664537609e-04 0.0000000000000000e+00 0.0000000000000000e+00  3.2979999668896198e-03 1.8370000179857016e-03 0.0000000000000000e+00  7.4450001120567322e-03 4.2570000514388084e-03 0.0000000000000000e+00  4.2679999023675919e-03 1.8520000157877803e-03 0.0000000000000000e+00  2.5092000141739845e-02 1.2881999835371971e-02 0.0000000000000000e+00  1.8273999914526939e-02 1.0150000452995300e-02 0.0000000000000000e+00  1.9422000274062157e-02 9.4940001145005226e-03 0.0000000000000000e+00  1.4047999866306782e-02 6.2279999256134033e-03 0.0000000000000000e+00  1.9571000710129738e-02 8.0369999632239342e-03 0.0000000000000000e+00  1.2841000221669674e-02 6.7710001021623611e-03 0.0000000000000000e+00  2.4707999080419540e-02 1.4100999571382999e-02 0.0000000000000000e+00  1.7790999263525009e-02 1.1955000460147858e-02 0.0000000000000000e+00  2.2203000262379646e-02 1.4840000309050083e-02 0.0000000000000000e+00  2.3964000865817070e-02 1.4902000315487385e-02 0.0000000000000000e+00  1.3240999542176723e-02 3.1069999095052481e-03 0.0000000000000000e+00  5.8878999203443527e-02 3.9900999516248703e-02 0.0000000000000000e+00  5.9751998633146286e-02 3.6336999386548996e-02 0.0000000000000000e+00  6.3086003065109253e-02 4.0529001504182816e-02 0.0000000000000000e+00  6.9519996643066406e-02 5.1748000085353851e-02 0.0000000000000000e+00  7.2555996477603912e-02 5.5201001465320587e-02 0.0000000000000000e+00  6.9779999554157257e-02 5.2696000784635544e-02 0.0000000000000000e+00  1.3326999731361866e-02 1.8870000494644046e-03 0.0000000000000000e+00  8.8510001078248024e-03 -5.5499997688457370e-04 0.0000000000000000e+00  9.3310000374913216e-03 -9.2199997743591666e-04 0.0000000000000000e+00  7.9229995608329773e-03 -1.7579999985173345e-03 0.0000000000000000e+00  0.0000000000000000e+00 0.0000000000000000e+00 0.0000000000000000e+00  0.0000000000000000e+00 0.0000000000000000e+00 0.0000000000000000e+00  4.9426998943090439e-02 6.2112998217344284e-02 0.0000000000000000e+00  4.0435999631881714e-02 4.3324999511241913e-02 0.0000000000000000e+00  4.2029000818729401e-02 5.6625999510288239e-02 0.0000000000000000e+00  5.3725000470876694e-02 7.6481997966766357e-02 0.0000000000000000e+00  2.7132999151945114e-02 1.4054800570011139e-01 0.0000000000000000e+00  3.5723999142646790e-02 1.4984799921512604e-01 0.0000000000000000e+00  1.1013999581336975e-02 1.4979700744152069e-01 0.0000000000000000e+00  3.0822999775409698e-02 2.8679000213742256e-02 0.0000000000000000e+00  5.3659998811781406e-03 -7.8330002725124359e-03 0.0000000000000000e+00  6.1019998975098133e-03 -8.0779995769262314e-03 0.0000000000000000e+00  3.5495001822710037e-02 4.6985998749732971e-02 0.0000000000000000e+00  8.8390000164508820e-03 -7.2909998707473278e-03 0.0000000000000000e+00  9.3130003660917282e-03 -7.0540001615881920e-03 0.0000000000000000e+00  5.4544001817703247e-02 8.4531001746654510e-02 0.0000000000000000e+00  6.5852999687194824e-02 9.5182999968528748e-02 0.0000000000000000e+00  5.6409001350402832e-02 7.9848997294902802e-02 0.0000000000000000e+00  5.8051999658346176e-02 7.5841002166271210e-02 0.0000000000000000e+00  4.5380000025033951e-02 6.3956998288631439e-02 0.0000000000000000e+00  6.8599000573158264e-02 9.0960003435611725e-02 0.0000000000000000e+00  7.7206000685691833e-02 1.0547500103712082e-01 0.0000000000000000e+00  7.1241997182369232e-02 8.7433002889156342e-02 0.0000000000000000e+00  7.4110001325607300e-02 8.4779001772403717e-02 0.0000000000000000e+00  8.3847999572753906e-02 9.7944997251033783e-02 0.0000000000000000e+00  8.7094001471996307e-02 9.5031000673770905e-02 0.0000000000000000e+00  7.4758000671863556e-02 1.2918800115585327e-01 0.0000000000000000e+00  8.4634996950626373e-02 1.4973300695419312e-01 0.0000000000000000e+00  8.0122999846935272e-02 1.3336199522018433e-01 0.0000000000000000e+00  8.8689997792243958e-02 1.5436699986457825e-01 0.0000000000000000e+00  -7.5599999399855733e-04 -9.8999997135251760e-04 0.0000000000000000e+00  -7.5599999399855733e-04 -1.2420000275596976e-03 0.0000000000000000e+00  -3.3789998851716518e-03 -9.4000002718530595e-05 0.0000000000000000e+00  -3.3239999320358038e-03 -3.3000000257743523e-05 0.0000000000000000e+00  9.5656998455524445e-02 1.0715299844741821e-01 0.0000000000000000e+00  1.2817899882793427e-01 1.3901700079441071e-01 0.0000000000000000e+00  1.2748999893665314e-01 1.4414000511169434e-01 0.0000000000000000e+00  1.3286100327968597e-01 1.4005200564861298e-01 0.0000000000000000e+00  1.2296400219202042e-01 1.4324000477790833e-01 0.0000000000000000e+00  7.2993002831935883e-02 1.0992100089788437e-01 0.0000000000000000e+00  3.4676000475883484e-02 2.3039000108838081e-02 0.0000000000000000e+00  3.8495000451803207e-02 2.5495000183582306e-02 0.0000000000000000e+00  2.4460999295115471e-02 1.8132999539375305e-02 0.0000000000000000e+00  1.5681800246238708e-01 8.1572003662586212e-02 0.0000000000000000e+00  1.6169700026512146e-01 8.1508003175258636e-02 0.0000000000000000e+00  1.5000100433826447e-01 7.6252996921539307e-02 0.0000000000000000e+00  1.5518899261951447e-01 7.6458998024463654e-02 0.0000000000000000e+00  1.6594700515270233e-01 8.0710001289844513e-02 0.0000000000000000e+00  1.4658799767494202e-01 7.1195997297763824e-02 0.0000000000000000e+00  1.4110000431537628e-01 7.0653997361660004e-02 0.0000000000000000e+00  1.6793799400329590e-01 8.6162999272346497e-02 0.0000000000000000e+00  5.7879998348653316e-03 -1.2844000011682510e-02 0.0000000000000000e+00  -2.5790000800043344e-03 -3.5679001361131668e-02 0.0000000000000000e+00  5.5550001561641693e-03 -1.2844000011682510e-02 0.0000000000000000e+00  5.4300000192597508e-04 -3.9666999131441116e-02 0.0000000000000000e+00  -1.1699999449774623e-03 -4.1570998728275299e-02 0.0000000000000000e+00  -2.5300000561401248e-04 -4.7550000250339508e-02 0.0000000000000000e+00  -3.6919999402016401e-03 -4.4498000293970108e-02 0.0000000000000000e+00  3.2470000442117453e-03 -5.1330998539924622e-02 0.0000000000000000e+00  3.1699999817647040e-04 -5.3203001618385315e-02 0.0000000000000000e+00  -3.2750000245869160e-03 -4.9906998872756958e-02 0.0000000000000000e+00  6.0439999215304852e-03 -1.2844000011682510e-02 0.0000000000000000e+00  -2.3806000128388405e-02 -4.8287000507116318e-02 0.0000000000000000e+00  -2.1965999156236649e-02 -4.5625001192092896e-02 0.0000000000000000e+00  -2.0592000335454941e-02 -4.5327000319957733e-02 0.0000000000000000e+00  -1.9959000870585442e-02 -4.1186999529600143e-02 0.0000000000000000e+00  -1.9007999449968338e-02 -4.3526999652385712e-02 0.0000000000000000e+00  -1.8216000869870186e-02 -3.9615999907255173e-02 0.0000000000000000e+00  -1.8720999360084534e-02 -4.2027000337839127e-02 0.0000000000000000e+00  -2.1157000213861465e-02 -4.8048999160528183e-02 0.0000000000000000e+00  -2.1867999807000160e-02 -5.2000001072883606e-02 0.0000000000000000e+00  -2.5262000039219856e-02 -5.2616998553276062e-02 0.0000000000000000e+00  -2.5567000731825829e-02 -5.8986000716686249e-02 0.0000000000000000e+00  -2.3237999528646469e-02 -4.6751998364925385e-02 0.0000000000000000e+00  -2.0089000463485718e-02 -4.1910000145435333e-02 0.0000000000000000e+00  -2.2938000038266182e-02 -4.6321000903844833e-02 0.0000000000000000e+00  -2.2199999541044235e-02 -4.6955000609159470e-02 0.0000000000000000e+00  -2.0027000457048416e-02 -4.2585000395774841e-02 0.0000000000000000e+00  -2.2818999364972115e-02 -5.9229999780654907e-02 0.0000000000000000e+00  -2.0425999537110329e-02 -6.1055000871419907e-02 0.0000000000000000e+00  -2.1092999726533890e-02 -5.9041999280452728e-02 0.0000000000000000e+00  -2.0676000043749809e-02 -5.4995998740196228e-02 0.0000000000000000e+00  -1.8928999081254005e-02 -5.7603001594543457e-02 0.0000000000000000e+00  -2.4771999567747116e-02 -5.4003000259399414e-02 0.0000000000000000e+00  -2.4877000600099564e-02 -5.6363999843597412e-02 0.0000000000000000e+00  -2.3064000532031059e-02 -5.4921001195907593e-02 0.0000000000000000e+00  -2.0988000556826591e-02 -5.2625000476837158e-02 0.0000000000000000e+00  -4.6020001173019409e-03 -4.5805998146533966e-02 0.0000000000000000e+00  -7.8110001049935818e-03 -3.9847001433372498e-02 0.0000000000000000e+00  -9.1859996318817139e-03 -4.0933001786470413e-02 0.0000000000000000e+00  4.3429997749626637e-03 -3.3980000298470259e-03 0.0000000000000000e+00  4.5329998247325420e-03 -3.7779998965561390e-03 0.0000000000000000e+00  4.7089997678995132e-03 -4.3060001917183399e-03 0.0000000000000000e+00  4.8989998176693916e-03 -4.8739998601377010e-03 0.0000000000000000e+00  3.5520000383257866e-03 3.0239999759942293e-03 0.0000000000000000e+00  1.2969000265002251e-02 1.0499999858438969e-02 0.0000000000000000e+00  1.8312999978661537e-02 1.4109999872744083e-02 0.0000000000000000e+00  7.7260001562535763e-03 6.5660001710057259e-03 0.0000000000000000e+00  3.9570000953972340e-03 -2.6249999646097422e-03 0.0000000000000000e+00  1.7879999941214919e-03 0.0000000000000000e+00 0.0000000000000000e+00  3.7289999891072512e-03 3.3219999168068171e-03 0.0000000000000000e+00  2.2670000325888395e-03 0.0000000000000000e+00 0.0000000000000000e+00  1.2979999883100390e-03 0.0000000000000000e+00 0.0000000000000000e+00  1.7192000523209572e-02 1.3412999920547009e-02 0.0000000000000000e+00  2.3257000371813774e-02 1.6423000022768974e-02 0.0000000000000000e+00  2.9439000412821770e-02 1.9445000216364861e-02 0.0000000000000000e+00  2.5962000712752342e-02 1.8131999298930168e-02 0.0000000000000000e+00  5.4005999118089676e-02 3.4942001104354858e-02 0.0000000000000000e+00  5.3332000970840454e-02 3.8058001548051834e-02 0.0000000000000000e+00  4.8648998141288757e-02 3.3114001154899597e-02 0.0000000000000000e+00  2.5791000574827194e-02 1.1660000309348106e-02 0.0000000000000000e+00  4.0862001478672028e-02 1.7116999253630638e-02 0.0000000000000000e+00  4.7862000763416290e-02 2.0759999752044678e-02 0.0000000000000000e+00  4.7719001770019531e-02 2.1242000162601471e-02 0.0000000000000000e+00  3.9831001311540604e-02 1.5986999496817589e-02 0.0000000000000000e+00  3.3057000488042831e-02 1.2659999541938305e-02 0.0000000000000000e+00  5.3208000957965851e-02 2.5103000923991203e-02 0.0000000000000000e+00  5.7617001235485077e-02 3.0585000291466713e-02 0.0000000000000000e+00  5.9156998991966248e-02 2.9402000829577446e-02 0.0000000000000000e+00  4.5788999646902084e-02 6.4797997474670410e-02 0.0000000000000000e+00  3.8458000868558884e-02 5.0027001649141312e-02 0.0000000000000000e+00  4.8268999904394150e-02 6.8561002612113953e-02 0.0000000000000000e+00  8.1923998892307281e-02 1.3018999993801117e-01 0.0000000000000000e+00  7.7729001641273499e-02 1.2283600121736526e-01 0.0000000000000000e+00  8.6631998419761658e-02 1.4372499287128448e-01 0.0000000000000000e+00  1.1448699980974197e-01 2.0334100723266602e-01 0.0000000000000000e+00  1.1979799717664719e-01 2.1481400728225708e-01 0.0000000000000000e+00  1.1708799749612808e-01 2.0641100406646729e-01 0.0000000000000000e+00  -5.2889999933540821e-03 5.2889999933540821e-03 0.0000000000000000e+00  8.5132002830505371e-02 1.7030599713325500e-01 0.0000000000000000e+00  8.7516002357006073e-02 1.8560799956321716e-01 0.0000000000000000e+00  8.8030003011226654e-02 1.8051800131797791e-01 0.0000000000000000e+00  8.4466002881526947e-02 1.6420799493789673e-01 0.0000000000000000e+00  8.2722000777721405e-02 1.5895700454711914e-01 0.0000000000000000e+00  8.0072999000549316e-02 1.4774200320243835e-01 0.0000000000000000e+00  9.5229998230934143e-02 1.7308500409126282e-01 0.0000000000000000e+00  9.1788999736309052e-02 1.5978999435901642e-01 0.0000000000000000e+00  9.8544999957084656e-02 1.7764100432395935e-01 0.0000000000000000e+00  9.5086999237537384e-02 1.6490299999713898e-01 0.0000000000000000e+00  7.2375997900962830e-02 1.2639799714088440e-01 0.0000000000000000e+00  7.9077996313571930e-02 1.4487899839878082e-01 0.0000000000000000e+00  8.4000997245311737e-02 1.6046500205993652e-01 0.0000000000000000e+00  8.8450998067855835e-02 1.7712700366973877e-01 0.0000000000000000e+00  9.4080001115798950e-02 1.9298200309276581e-01 0.0000000000000000e+00  9.3434996902942657e-02 1.8061099946498871e-01 0.0000000000000000e+00  7.9595997929573059e-02 1.4527300000190735e-01 0.0000000000000000e+00  -6.1884999275207520e-02 7.9942002892494202e-02 0.0000000000000000e+00  -7.1892999112606049e-02 6.6477999091148376e-02 0.0000000000000000e+00  -6.5173998475074768e-02 7.5142003595829010e-02 0.0000000000000000e+00  -3.4540001302957535e-02 1.1251100152730942e-01 0.0000000000000000e+00  -3.9572000503540039e-02 1.0658600181341171e-01 0.0000000000000000e+00  -4.5862000435590744e-02 9.8433002829551697e-02 0.0000000000000000e+00  -5.0746001303195953e-02 9.3771003186702728e-02 0.0000000000000000e+00  -3.9216998964548111e-02 -8.2443997263908386e-02 0.0000000000000000e+00  -4.2429000139236450e-02 -7.9759001731872559e-02 0.0000000000000000e+00  -3.6407001316547394e-02 -8.0214001238346100e-02 0.0000000000000000e+00  -3.1550999730825424e-02 -8.2176998257637024e-02 0.0000000000000000e+00  -4.1232001036405563e-02 -8.7160997092723846e-02 0.0000000000000000e+00  -8.3341002464294434e-02 -8.3249002695083618e-02 0.0000000000000000e+00  -7.3533996939659119e-02 -8.5243001580238342e-02 0.0000000000000000e+00  -8.1405997276306152e-02 -8.2456998527050018e-02 0.0000000000000000e+00  -6.099100038