<?xml version="1.0"?>
<VTKFile type="UnstructuredGrid"  version="0.1"  >
<UnstructuredGrid>
<Piece  NumberOfPoints="6340" NumberOfCells="12376">
<Points>
<DataArray  type="Float64"  NumberOfComponents="3"  format="ascii">-0.01926299929618835 0.02069400064647198 0  -0.01985600031912327 0.02131900005042553 0  -0.02009999938309193 0.02034999988973141 0  -0.02055699937045574 0.02103199996054173 0  -0.01950399950146675 0.01977800019085407 0  -0.01908699981868267 0.02156499959528446 0  -0.0195080004632473 0.02226999960839748 0  -0.01905900053679943 0.0230919998139143 0  -0.01988999918103218 0.02295899949967861 0  -0.01864499971270561 0.02229299955070019 0  -0.009034000337123871 0.01759099960327148 0  -0.009635999798774719 0.01850499957799911 0  -0.009971000254154205 0.01756699942052364 0  -0.0105790002271533 0.01852199994027615 0  -0.0239889994263649 0.07096199691295624 0  -0.02487600035965443 0.07122199982404709 0  -0.0250220000743866 0.07046700268983841 0  -0.02420699968934059 0.06482400000095367 0  -0.02484199963510036 0.06540200114250183 0  -0.02497600018978119 0.0645420029759407 0  -0.02569999918341637 0.06483999639749527 0  -0.01172600034624338 0.08335600048303604 0  -0.01255599968135357 0.08313299715518951 0  -0.01201200019568205 0.08260700106620789 0  -0.01840700022876263 0.0773020014166832 0  -0.01747599989175797 0.07758300006389618 0  -0.01794799976050854 0.07815700024366379 0  -0.01793899945914745 0.07672200351953506 0  -0.02130600064992905 0.02419300004839897 0  -0.02054399996995926 0.02440599910914898 0  -0.0208320003002882 0.02508600056171417 0  -0.02108299918472767 0.0257789995521307 0  -0.02160800062119961 0.02488099969923496 0  -0.02006199955940247 0.02530599944293499 0  -0.01975099928677082 0.02455499954521656 0  -0.0189449992030859 0.02468400076031685 0  -0.01926999911665916 0.02543899975717068 0  -0.02101499959826469 0.02349399961531162 0  -0.02184600010514259 0.02331800013780594 0  -0.02140000090003014 0.02229000069200993 0  -0.02098999917507172 0.02167900092899799 0  -0.0206959992647171 0.02274299971759319 0  -0.02027400024235249 0.02203799970448017 0  -0.0162349995225668 0.02201800048351288 0  -0.01672999933362007 0.02114100009202957 0  -0.01581900008022785 0.02111800014972687 0  -0.01707600057125092 0.02213400043547153 0  -0.01790300011634827 0.02212199941277504 0  -0.01743300072848797 0.02300399914383888 0  0.0403750017285347 0.07557100057601929 0  0.0400950014591217 0.07470999658107758 0  0.04132800176739693 0.07475399971008301 0  0.04274500161409378 0.08560200035572052 0  0.04349099844694138 0.08580300211906433 0  0.04241000115871429 0.08628199994564056 0  0.02499699965119362 0.0939830020070076 0  0.02520000003278255 0.09328799694776535 0  0.0260620005428791 0.09351199865341187 0  0.02401800081133842 0.09441599994897842 0  0.02422099933028221 0.09357699751853943 0  -0.007306999992579222 0.09119600057601929 0  -0.006504999939352274 0.09145700186491013 0  -0.007091999985277653 0.09196200221776962 0  -0.006277999840676785 0.09222900122404099 0  -0.01719599962234497 0.08975899964570999 0  -0.01747599989175797 0.08912599831819534 0  -0.01653899997472763 0.08943399786949158 0  -0.01805900037288666 0.08971100300550461 0  -0.01463199965655804 0.0951559990644455 0  -0.0149320000782609 0.0957999974489212 0  -0.01532400026917458 0.09511200338602066 0  -0.01049199979752302 0.08961900323629379 0  -0.009739999659359455 0.08981800079345703 0  -0.01032099965959787 0.09032999724149704 0  -0.01125700026750565 0.08942399919033051 0  -0.01067699957638979 0.0889120027422905 0  -0.01144099980592728 0.0887179970741272 0  -0.01375399995595217 0.09072799980640411 0  -0.01429599989205599 0.09122200310230255 0  -0.01455700024962425 0.09051399677991867 0  -0.01260500028729439 0.08973400294780731 0  -0.01339800003916025 0.08953499794006348 0  -0.01281100045889616 0.08903100341558456 0  0.01106599997729063 0.08889500051736832 0  0.01207899954169989 0.08877100050449371 0  0.01146099995821714 0.08945400267839432 0  0.007625000085681677 0.0777679979801178 0  0.008112000301480293 0.07694800198078156 0  0.008636999875307083 0.07764299958944321 0  -0.008790000341832638 0.01666999980807304 0  -0.008030000142753124 0.01682900078594685 0  -0.009602000005543232 0.01660900004208088 0  -0.01044999994337559 0.01654599979519844 0  -0.01384999975562096 0.016720000654459 0  -0.01404299959540367 0.01783899962902069 0  -0.01463299989700317 0.01696199923753738 0  -0.01329299993813038 0.01760300062596798 0  -0.01328399963676929 0.01865500025451183 0  -0.01252400036901236 0.01772999949753284 0  -0.01275200024247169 0.02161299996078014 0  -0.01322999969124794 0.02066699974238873 0  -0.01236299984157085 0.02065400034189224 0  -0.01195800025016069 0.01974700018763542 0  -0.01141799986362457 0.02057299949228764 0  -0.01284500025212765 0.01966699957847595 0  -0.01362099964171648 0.02168099954724312 0  -0.01496099960058928 0.02097100019454956 0  -0.01535299979150295 0.02195099927484989 0  -0.01449200045317411 0.02181899920105934 0  -0.0100720003247261 0.01945400051772594 0  -0.01140999980270863 0.03071999922394753 0  -0.0119049996137619 0.02986199967563152 0  -0.01099700015038252 0.02975399978458881 0  -0.006380000151693821 0.02910899929702282 0  -0.006808999925851822 0.03009900078177452 0  -0.007306999992579222 0.02924999967217445 0  -0.009170000441372395 0.01945300027728081 0  -0.006887999828904867 0.01869699917733669 0  -0.007794999983161688 0.01861000061035156 0  -0.007104999851435423 0.01784699968993664 0  -0.007209000177681446 0.01700000092387199 0  -0.006300000008195639 0.0171900000423193 0  0.04478799924254417 0.08230800181627274 0  0.04553800076246262 0.08168700337409973 0  0.04541200026869774 0.08285199850797653 0  0.04440300166606903 0.08311399817466736 0  0.01418399997055531 0.05727500095963478 0  0.01514200028032064 0.05699900165200233 0  0.014767000451684 0.05795099958777428 0  0.02578499913215637 0.04027700051665306 0  0.02614600025117397 0.03917700052261353 0  0.02664599940180779 0.03978399932384491 0  0.02813199907541275 0.043869998306036 0  0.02893700078129768 0.04304400086402893 0  0.0293199997395277 0.04368399828672409 0  0.02817000076174736 0.04720799997448921 0  0.02728299982845783 0.0474729984998703 0  0.02771000005304813 0.04647500067949295 0  0.02723200060427189 0.04578400030732155 0  0.02817700058221817 0.04547199979424477 0  0.02679000049829483 0.04677199944853783 0  0.02637100033462048 0.04775699973106384 0  0.02627200074493885 0.04611299932003021 0  0.02569800056517124 0.04548700153827667 0  0.02530499920248985 0.04642900079488754 0  0.02471699938178062 0.04579300060868263 0  0.04221599921584129 0.0844850018620491 0  0.04116500169038773 0.08461499959230423 0  0.04179500043392181 0.08394200354814529 0  0.04076699912548065 0.08404599875211716 0  0.005307000130414963 0.022749999538064 0  0.00597199983894825 0.02318100072443485 0  0.005357999820262194 0.02385099977254868 0  0.006076000165194273 0.02416899986565113 0  0.02433400042355061 0.04673400148749352 0  0.0206729993224144 0.04950100183486938 0  0.02029499970376492 0.05044899880886078 0  0.01970499940216541 0.0497869998216629 0  0.02125800028443336 0.05016300082206726 0  0.02689000032842159 0.04845299944281578 0  0.01524300035089254 0.03343899920582771 0  0.01444999966770411 0.03336799889802933 0  0.01477700006216764 0.03242399916052818 0  0.01063300017267466 0.03920299932360649 0  0.009816000238060951 0.03925099968910217 0  0.01018100045621395 0.03831199929118156 0  0.009363999590277672 0.03836100175976753 0  0.008999000303447247 0.03929800167679787 0  0.008911999873816967 0.03747100010514259 0  0.009728999808430672 0.03742299973964691 0  0.01026799995452166 0.0401419997215271 0  -0.02563600055873394 0.06565199792385101 0  -0.02462200075387955 0.06621000170707703 0  -0.0255769994109869 0.06639499962329865 0  -0.02394100092351437 0.06571199744939804 0  -0.02362699992954731 0.0665460005402565 0  -0.02266299910843372 0.06687700003385544 0  -0.02315800078213215 0.06745500117540359 0  -0.02207499928772449 0.06633199751377106 0  -0.02171700075268745 0.06718999892473221 0  -0.02224799990653992 0.06775899976491928 0  -0.02572399936616421 0.0639989972114563 0  -0.01749599911272526 0.07899899780750275 0  -0.01841799914836884 0.07872900366783142 0  -0.01725899986922741 0.0865510031580925 0  -0.01809499971568584 0.08636199682950974 0  -0.01753499917685986 0.08583399653434753 0  -0.01836699992418289 0.08564899861812592 0  -0.01781499944627285 0.08511000126600266 0  -0.01661299914121628 0.08877599984407425 0  -0.01582800038158894 0.08896700292825699 0  -0.01567699946463108 0.0896420031785965 0  -0.01285700034350157 0.08237200230360031 0  -0.010495999827981 0.07753600180149078 0  -0.009569000452756882 0.07781600207090378 0  -0.01005300041288137 0.07837899774312973 0  -0.009654000401496887 0.07919300347566605 0  -0.00915099959820509 0.07864200323820114 0  -0.01424400042742491 0.0749019980430603 0  -0.01471299957484007 0.0740009993314743 0  -0.01378200016915798 0.07429499924182892 0  -0.01284999959170818 0.07458999752998352 0  -0.0133050000295043 0.07369100302457809 0  -0.01700600050389767 0.07700599730014801 0  -0.01654800027608871 0.07641299813985825 0  -0.01748500019311905 0.07612200081348419 0  -0.01842400059103966 0.07583300024271011 0  -0.02280599996447563 0.06832700222730637 0  -0.02339700050652027 0.07040099799633026 0  -0.02301600016653538 0.07127299904823303 0  -0.0220819991081953 0.02386300079524517 0  -0.02230999991297722 0.02439000084996223 0  -0.02245200052857399 0.02489599958062172 0  -0.02260500006377697 0.02543999999761581 0  -0.0218260008841753 0.02560199983417988 0  -0.01941699907183647 0.02381700091063976 0  -0.01860300078988075 0.02393599972128868 0  -0.02023500017821789 0.02366800047457218 0  -0.02161600068211555 0.0227889996021986 0  -0.01769600063562393 0.01830100081861019 0  -0.01732500083744526 0.01906299963593483 0  -0.0183700006455183 0.01868999935686588 0  -0.01700500026345253 0.01790099963545799 0  -0.01821699924767017 0.02309600077569485 0  -0.016607
[...]
<PointData  Vectors="velocity"> 
<DataArray  type="Float64"  Name="velocity"  NumberOfComponents="3" format="ascii">3.0829999595880508e-03 2.5989999994635582e-03 0.0000000000000000e+00  3.2029999420046806e-03 2.7489999774843454e-03 0.0000000000000000e+00  3.7779998965561390e-03 -2.2670000325888395e-03 0.0000000000000000e+00  4.0429998189210892e-03 -2.5319999549537897e-03 0.0000000000000000e+00  3.5170000046491623e-03 -2.0059999078512192e-03 0.0000000000000000e+00  6.1929998919367790e-03 5.1130000501871109e-03 0.0000000000000000e+00  7.0799998939037323e-03 5.8619999326765537e-03 0.0000000000000000e+00  1.1153000406920910e-02 8.7489997968077660e-03 0.0000000000000000e+00  7.9290000721812248e-03 6.5569998696446419e-03 0.0000000000000000e+00  9.9299997091293335e-03 7.7990000136196613e-03 0.0000000000000000e+00  5.9710000641644001e-03 -4.3990002013742924e-03 0.0000000000000000e+00  6.0959998518228531e-03 -3.9960001595318317e-03 0.0000000000000000e+00  4.9939998425543308e-03 -3.1230000313371420e-03 0.0000000000000000e+00  6.3180001452565193e-03 -2.1679999772459269e-03 0.0000000000000000e+00  -1.0081999935209751e-02 -4.2309001088142395e-02 0.0000000000000000e+00  8.3109997212886810e-03 -1.9377000629901886e-02 0.0000000000000000e+00  8.3109997212886810e-03 -1.9142000004649162e-02 0.0000000000000000e+00  -5.8000001445179805e-05 -4.6273998916149139e-02 0.0000000000000000e+00  -1.8700000364333391e-03 -4.1785001754760742e-02 0.0000000000000000e+00  -1.8899999558925629e-03 -4.1515998542308807e-02 0.0000000000000000e+00  9.0659996494650841e-03 -1.9642999395728111e-02 0.0000000000000000e+00  -2.8311999514698982e-02 -6.9280996918678284e-02 0.0000000000000000e+00  -2.8258999809622765e-02 -6.7405000329017639e-02 0.0000000000000000e+00  -2.8403000906109810e-02 -6.7281998693943024e-02 0.0000000000000000e+00  -2.3687999695539474e-02 -5.5806998163461685e-02 0.0000000000000000e+00  -2.5699999183416367e-02 -5.8462001383304596e-02 0.0000000000000000e+00  -2.4713000282645226e-02 -5.5495001375675201e-02 0.0000000000000000e+00  -2.4164000526070595e-02 -5.9066999703645706e-02 0.0000000000000000e+00  3.8960000965744257e-03 3.2510000746697187e-03 0.0000000000000000e+00  7.0230001583695412e-03 5.6549999862909317e-03 0.0000000000000000e+00  7.5059998780488968e-03 6.0080001130700111e-03 0.0000000000000000e+00  7.0009999908506870e-03 5.5269999429583549e-03 0.0000000000000000e+00  4.2019998654723167e-03 3.4880000166594982e-03 0.0000000000000000e+00  1.0831000283360481e-02 8.2830004394054413e-03 0.0000000000000000e+00  1.0633000172674656e-02 8.1970002502202988e-03 0.0000000000000000e+00  1.5189000405371189e-02 1.1171000078320503e-02 0.0000000000000000e+00  1.4301000162959099e-02 1.0425000451505184e-02 0.0000000000000000e+00  3.5260000731796026e-03 2.9589999467134476e-03 0.0000000000000000e+00  5.2729998715221882e-03 -4.1319997981190681e-03 0.0000000000000000e+00  4.5329998247325420e-03 -3.0219999607652426e-03 0.0000000000000000e+00  4.2949998751282692e-03 -2.7840000111609697e-03 0.0000000000000000e+00  4.3700002133846283e-03 3.7720000836998224e-03 0.0000000000000000e+00  4.0020002052187920e-03 3.4600000362843275e-03 0.0000000000000000e+00  1.6301000490784645e-02 1.0704999789595604e-02 0.0000000000000000e+00  1.1598999612033367e-02 8.1850001588463783e-03 0.0000000000000000e+00  1.3767000287771225e-02 8.8780000805854797e-03 0.0000000000000000e+00  1.4251000247895718e-02 1.0036000050604343e-02 0.0000000000000000e+00  1.1676000431180000e-02 8.7649999186396599e-03 0.0000000000000000e+00  1.6359999775886536e-02 1.1529999785125256e-02 0.0000000000000000e+00  5.4960999637842178e-02 8.6551003158092499e-02 0.0000000000000000e+00  5.2639000117778778e-02 8.6576998233795166e-02 0.0000000000000000e+00  -1.3802999630570412e-02 -3.2979999668896198e-03 0.0000000000000000e+00  6.2858998775482178e-02 1.0629799962043762e-01 0.0000000000000000e+00  5.8600001037120819e-02 9.3231000006198883e-02 0.0000000000000000e+00  6.6697001457214355e-02 1.1495099961757660e-01 0.0000000000000000e+00  -2.4473000317811966e-02 1.2554900348186493e-01 0.0000000000000000e+00  -1.6163999214768410e-02 1.3577799499034882e-01 0.0000000000000000e+00  -1.2426000088453293e-02 1.3943499326705933e-01 0.0000000000000000e+00  -3.5441000014543533e-02 1.1262500286102295e-01 0.0000000000000000e+00  -2.5908999145030975e-02 1.2468899786472321e-01 0.0000000000000000e+00  -5.1801998168230057e-02 -8.4599003195762634e-02 0.0000000000000000e+00  -5.6212000548839569e-02 -8.5083000361919403e-02 0.0000000000000000e+00  -5.9128999710083008e-02 -8.3306998014450073e-02 0.0000000000000000e+00  -6.3803002238273621e-02 -8.3686001598834991e-02 0.0000000000000000e+00  -2.6936000213027000e-02 -4.9405999481678009e-02 0.0000000000000000e+00  -2.5157999247312546e-02 -4.8792999237775803e-02 0.0000000000000000e+00  -2.6534000411629677e-02 -5.2811000496149063e-02 0.0000000000000000e+00  1.2469999492168427e-03 -2.6196999475359917e-02 0.0000000000000000e+00  -3.0906999483704567e-02 -4.2775999754667282e-02 0.0000000000000000e+00  -5.6250002235174179e-03 -2.7719000354409218e-02 0.0000000000000000e+00  -4.2790002189576626e-03 -2.7450000867247581e-02 0.0000000000000000e+00  -3.3477000892162323e-02 -7.9283997416496277e-02 0.0000000000000000e+00  -3.5622000694274902e-02 -8.1330001354217529e-02 0.0000000000000000e+00  -3.8931999355554581e-02 -7.9262003302574158e-02 0.0000000000000000e+00  -3.1530998647212982e-02 -7.6676003634929657e-02 0.0000000000000000e+00  -2.9954999685287476e-02 -7.8970998525619507e-02 0.0000000000000000e+00  -2.8951000422239304e-02 -7.6416000723838806e-02 0.0000000000000000e+00  -3.4862998872995377e-02 -6.4199000597000122e-02 0.0000000000000000e+00  -3.4391999244689941e-02 -6.0283999890089035e-02 0.0000000000000000e+00  -3.2467000186443329e-02 -6.0853000730276108e-02 0.0000000000000000e+00  -3.1991999596357346e-02 -7.1160003542900085e-02 0.0000000000000000e+00  -3.0135000124573708e-02 -6.7755997180938721e-02 0.0000000000000000e+00  -2.8541000559926033e-02 -7.0819996297359467e-02 0.0000000000000000e+00  -8.6939996108412743e-03 4.9428999423980713e-02 0.0000000000000000e+00  -3.8479999639093876e-03 6.1292998492717743e-02 0.0000000000000000e+00  -1.5231000259518623e-02 4.8625998198986053e-02 0.0000000000000000e+00  1.1589600145816803e-01 9.8678000271320343e-02 0.0000000000000000e+00  1.1893399804830551e-01 1.0561300069093704e-01 0.0000000000000000e+00  1.2163999676704407e-01 1.0606700181961060e-01 0.0000000000000000e+00  1.5109999803826213e-03 -1.5109999803826213e-03 0.0000000000000000e+00  1.2809999752789736e-03 -1.5109999803826213e-03 0.0000000000000000e+00  1.5109999803826213e-03 -1.5109999803826213e-03 0.0000000000000000e+00  1.5109999803826213e-03 -1.5109999803826213e-03 0.0000000000000000e+00  2.2670000325888395e-03 -1.5109999803826213e-03 0.0000000000000000e+00  3.2460000365972519e-03 1.0969999711960554e-03 0.0000000000000000e+00  2.2670000325888395e-03 -1.5109999803826213e-03 0.0000000000000000e+00  3.1520000193268061e-03 4.7299999278038740e-04 0.0000000000000000e+00  6.3629997894167900e-03 1.9960000645369291e-03 0.0000000000000000e+00  3.8769999518990517e-03 -1.9999999494757503e-05 0.0000000000000000e+00  2.0826000720262527e-02 8.3539998158812523e-03 0.0000000000000000e+00  1.5305000357329845e-02 6.4739999361336231e-03 0.0000000000000000e+00  1.6101000830531120e-02 5.3619998507201672e-03 0.0000000000000000e+00  1.1540000326931477e-02 2.4639999028295279e-03 0.0000000000000000e+00  1.6003999859094620e-02 3.4560000058263540e-03 0.0000000000000000e+00  1.0758000425994396e-02 3.5759999882429838e-03 0.0000000000000000e+00  2.0479999482631683e-02 9.7669996321201324e-03 0.0000000000000000e+00  1.4853999949991703e-02 8.6639998480677605e-03 0.0000000000000000e+00  1.8333999440073967e-02 1.1014999821782112e-02 0.0000000000000000e+00  1.9757999107241631e-02 1.0723000392317772e-02 0.0000000000000000e+00  9.8660001531243324e-03 -1.8649999983608723e-03 0.0000000000000000e+00  5.2974000573158264e-02 3.0626000836491585e-02 0.0000000000000000e+00  5.1833998411893845e-02 2.7685999870300293e-02 0.0000000000000000e+00  5.4848000407218933e-02 3.0802000313997269e-02 0.0000000000000000e+00  6.1503998935222626e-02 3.7973001599311829e-02 0.0000000000000000e+00  6.6517002880573273e-02 4.0851000696420670e-02 0.0000000000000000e+00  6.1039000749588013e-02 3.9129998534917831e-02 0.0000000000000000e+00  9.2690000310540199e-03 -3.7930000107735395e-03 0.0000000000000000e+00  2.3260000161826611e-03 -7.5949998572468758e-03 0.0000000000000000e+00  4.3440000154078007e-03 -7.3850001208484173e-03 0.0000000000000000e+00  4.0170000866055489e-03 -7.8180003911256790e-03 0.0000000000000000e+00  1.0310000507161021e-03 -1.5109999803826213e-03 0.0000000000000000e+00  7.5599999399855733e-04 -1.5109999803826213e-03 0.0000000000000000e+00  3.3812001347541809e-02 4.9022998660802841e-02 0.0000000000000000e+00  2.4490000680088997e-02 3.1580001115798950e-02 0.0000000000000000e+00  3.0689999461174011e-02 4.1645999997854233e-02 0.0000000000000000e+00  4.0426000952720642e-02 6.0910001397132874e-02 0.0000000000000000e+00  1.5306999906897545e-02 1.4316299557685852e-01 0.0000000000000000e+00  2.3183999583125114e-02 1.5269100666046143e-01 0.0000000000000000e+00  1.3389999512583017e-03 1.5198199450969696e-01 0.0000000000000000e+00  3.1396999955177307e-02 2.9255000874400139e-02 0.0000000000000000e+00  -2.1889999043196440e-03 -1.1610000394284725e-02 0.0000000000000000e+00  -1.4530000044032931e-03 -1.1855999939143658e-02 0.0000000000000000e+00  3.6825001239776611e-02 4.8799999058246613e-02 0.0000000000000000e+00  2.3040000814944506e-03 -1.3598999939858913e-02 0.0000000000000000e+00  3.0149999074637890e-03 -1.3598999939858913e-02 0.0000000000000000e+00  5.5286001414060593e-02 8.6640000343322754e-02 0.0000000000000000e+00  6.6302999854087830e-02 9.7180001437664032e-02 0.0000000000000000e+00  5.7528000324964523e-02 8.1947997212409973e-02 0.0000000000000000e+00  5.9294000267982483e-02 7.7886998653411865e-02 0.0000000000000000e+00  4.6833001077175140e-02 6.6021002829074860e-02 0.0000000000000000e+00  6.9389998912811279e-02 9.2956997454166412e-02 0.0000000000000000e+00  7.7235996723175049e-02 1.0714600235223770e-01 0.0000000000000000e+00  7.2164997458457947e-02 8.9472003281116486e-02 0.0000000000000000e+00  7.5144000351428986e-02 8.6686000227928162e-02 0.0000000000000000e+00  8.4343999624252319e-02 9.9706999957561493e-02 0.0000000000000000e+00  8.7707996368408203e-02 9.6697002649307251e-02 0.0000000000000000e+00  6.3267000019550323e-02 1.1191300302743912e-01 0.0000000000000000e+00  7.0845000445842743e-02 1.3341000676155090e-01 0.0000000000000000e+00  6.4836002886295319e-02 1.1790599673986435e-01 0.0000000000000000e+00  7.2485998272895813e-02 1.3922099769115448e-01 0.0000000000000000e+00  -2.9700000304728746e-03 -2.2670000325888395e-03 0.0000000000000000e+00  -3.7269999738782644e-03 -2.2670000325888395e-03 0.0000000000000000e+00  -7.4629997834563255e-03 -3.7420000880956650e-03 0.0000000000000000e+00  -7.4040000326931477e-03 -3.6279999185353518e-03 0.0000000000000000e+00  9.5586001873016357e-02 1.0853400081396103e-01 0.0000000000000000e+00  1.2487400323152542e-01 1.3921999931335449e-01 0.0000000000000000e+00  1.2349800020456314e-01 1.4431600272655487e-01 0.0000000000000000e+00  1.2928399443626404e-01 1.4037300646305084e-01 0.0000000000000000e+00  1.1931599676609039e-01 1.4338399469852448e-01 0.0000000000000000e+00  7.2209000587463379e-02 1.1172199994325638e-01 0.0000000000000000e+00  3.3528998494148254e-02 2.0891999825835228e-02 0.0000000000000000e+00  3.7677001208066940e-02 2.3437000811100006e-02 0.0000000000000000e+00  2.2888999432325363e-02 1.5745999291539192e-02 0.0000000000000000e+00  1.5999400615692139e-01 8.4014996886253357e-02 0.0000000000000000e+00  1.6526700556278229e-01 8.4110997617244720e-02 0.0000000000000000e+00  1.5334600210189819e-01 7.8374996781349182e-02 0.0000000000000000e+00  1.5902499854564667e-01 7.8570999205112457e-02 0.0000000000000000e+00  1.6994699835777283e-01 8.3301998674869537e-02 0.0000000000000000e+00  1.5065500140190125e-01 7.2812996804714203e-02 0.0000000000000000e+00  1.4466600120067596e-01 7.2299003601074219e-02 0.0000000000000000e+00  1.7144399881362915e-01 8.9101999998092651e-02 0.0000000000000000e+00  9.0659996494650841e-03 -1.9642999395728111e-02 0.0000000000000000e+00  -2.6849999558180571e-03 -4.2785000056028366e-02 0.0000000000000000e+00  9.0659996494650841e-03 -1.9642999395728111e-02 0.0000000000000000e+00  -2.7499999850988388e-04 -4.7263998538255692e-02 0.0000000000000000e+00  -1.4720000326633453e-03 -4.8757001757621765e-02 0.0000000000000000e+00  -7.7500002225860953e-04 -5.4871000349521637e-02 0.0000000000000000e+00  -4.6569998376071453e-03 -5.1676999777555466e-02 0.0000000000000000e+00  2.0099999383091927e-03 -5.9243001043796539e-02 0.0000000000000000e+00  -4.6300000394694507e-04 -6.0759998857975006e-02 0.0000000000000000e+00  -4.4660000130534172e-03 -5.7225998491048813e-02 0.0000000000000000e+00  9.0659996494650841e-03 -1.9378999248147011e-02 0.0000000000000000e+00  -2.5487000122666359e-02 -5.5318001657724380e-02 0.0000000000000000e+00  -2.3644000291824341e-02 -5.2469000220298767e-02 0.0000000000000000e+00  -2.4054000154137611e-02 -5.1454998552799225e-02 0.0000000000000000e+00  -2.3445999249815941e-02 -4.7589000314474106e-02 0.0000000000000000e+00  -2.2933000698685646e-02 -5.0092000514268875e-02 0.0000000000000000e+00  -2.2190999239683151e-02 -4.6395998448133469e-02 0.0000000000000000e+00  -2.1995000541210175e-02 -4.8735998570919037e-02 0.0000000000000000e+00  -2.4700000882148743e-02 -5.3072001785039902e-02 0.0000000000000000e+00  -2.5781000033020973e-02 -5.6717999279499054e-02 0.0000000000000000e+00  -2.8130000457167625e-02 -5.6798998266458511e-02 0.0000000000000000e+00  -2.8590999543666840e-02 -6.5889000892639160e-02 0.0000000000000000e+00  -2.6427999138832092e-02 -5.6113000959157944e-02 0.0000000000000000e+00  -2.3665999993681908e-02 -5.1033001393079758e-02 0.0000000000000000e+00  -2.6149999350309372e-02 -5.5093999952077866e-02 0.0000000000000000e+00  -2.6041999459266663e-02 -5.5225998163223267e-02 0.0000000000000000e+00  -2.3634999990463257e-02 -5.1096998155117035e-02 0.0000000000000000e+00  -2.5042999535799026e-02 -6.8550996482372284e-02 0.0000000000000000e+00  -2.2980000823736191e-02 -7.0569999516010284e-02 0.0000000000000000e+00  -2.3897999897599220e-02 -6.9046996533870697e-02 0.0000000000000000e+00  -2.3787999525666237e-02 -6.5453998744487762e-02 0.0000000000000000e+00  -2.1857000887393951e-02 -6.8327002227306366e-02 0.0000000000000000e+00  -2.6052000001072884e-02 -6.1214998364448547e-02 0.0000000000000000e+00  -2.6208000257611275e-02 -6.3842996954917908e-02 0.0000000000000000e+00  -2.4292999878525734e-02 -6.2031000852584839e-02 0.0000000000000000e+00  -2.2164000198245049e-02 -5.9376999735832214e-02 0.0000000000000000e+00  -5.9719998389482498e-03 -5.2870001643896103e-02 0.0000000000000000e+00  -8.4690004587173462e-03 -4.6059001237154007e-02 0.0000000000000000e+00  -1.0394999757409096e-02 -4.7155998647212982e-02 0.0000000000000000e+00  5.6650000624358654e-03 -4.7200000844895840e-03 0.0000000000000000e+00  6.0439999215304852e-03 -5.2889999933540821e-03 0.0000000000000000e+00  6.3959998078644276e-03 -5.6409998796880245e-03 0.0000000000000000e+00  6.7750001326203346e-03 -6.0200002044439316e-03 0.0000000000000000e+00  3.3569999504834414e-03 2.7149999514222145e-03 0.0000000000000000e+00  1.1764000169932842e-02 9.1829998418688774e-03 0.0000000000000000e+00  1.5372999943792820e-02 1.1385000310838223e-02 0.0000000000000000e+00  7.6069999486207962e-03 6.2179998494684696e-03 0.0000000000000000e+00  4.8919999971985817e-03 -3.5600000992417336e-03 0.0000000000000000e+00  2.7830000035464764e-03 -1.5109999803826213e-03 0.0000000000000000e+00  3.2150000333786011e-03 2.4749999865889549e-03 0.0000000000000000e+00  3.0219999607652426e-03 -1.5109999803826213e-03 0.0000000000000000e+00  2.5380000006407499e-03 -1.5109999803826213e-03 0.0000000000000000e+00  1.4034999534487724e-02 1.0428000241518021e-02 0.0000000000000000e+00  1.8920000642538071e-02 1.2489999644458294e-02 0.0000000000000000e+00  2.3879999294877052e-02 1.4790000393986702e-02 0.0000000000000000e+00  2.1115999668836594e-02 1.3976999558508396e-02 0.0000000000000000e+00  4.9127999693155289e-02 2.7080999687314034e-02 0.0000000000000000e+00  4.9162000417709351e-02 2.9004000127315521e-02 0.0000000000000000e+00  4.4856000691652298e-02 2.5251999497413635e-02 0.0000000000000000e+00  2.1266000345349312e-02 6.7420001141726971e-03 0.0000000000000000e+00  3.3103998750448227e-02 1.0451000183820724e-02 0.0000000000000000e+00  3.8449000567197800e-02 1.3147000223398209e-02 0.0000000000000000e+00  3.8524001836776733e-02 1.4085000380873680e-02 0.0000000000000000e+00  3.2134000211954117e-02 8.9910002425312996e-03 0.0000000000000000e+00  2.6837000623345375e-02 6.5020001493394375e-03 0.0000000000000000e+00  4.2881000787019730e-02 1.6673000529408455e-02 0.0000000000000000e+00  4.6551998704671860e-02 2.1144999191164970e-02 0.0000000000000000e+00  4.7533001750707626e-02 2.0363999530673027e-02 0.0000000000000000e+00  3.6157999187707901e-02 4.8838000744581223e-02 0.0000000000000000e+00  2.9340000823140144e-02 3.5092998296022415e-02 0.0000000000000000e+00  3.9044998586177826e-02 5.2074000239372253e-02 0.0000000000000000e+00  6.5282002091407776e-02 1.1580999940633774e-01 0.0000000000000000e+00  6.0646999627351761e-02 1.0824300348758698e-01 0.0000000000000000e+00  6.9279000163078308e-02 1.2938299775123596e-01 0.0000000000000000e+00  1.0558799654245377e-01 1.8918099999427795e-01 0.0000000000000000e+00  1.1149600148200989e-01 2.0246399939060211e-01 0.0000000000000000e+00  1.0825499892234802e-01 1.9292899966239929e-01 0.0000000000000000e+00  -1.2844000011682510e-02 -3.7779998965561390e-03 0.0000000000000000e+00  7.7763997018337250e-02 1.5288600325584412e-01 0.0000000000000000e+00  8.1289000809192657e-02 1.6998100280761719e-01 0.0000000000000000e+00  8.0136999487876892e-02 1.6348700225353241e-01 0.0000000000000000e+00  7.6282002031803131e-02 1.4691899716854095e-01 0.0000000000000000e+00  7.5171001255512238e-02 1.4136999845504761e-01 0.0000000000000000e+00  7.1578003466129303e-02 1.2901699542999268e-01 0.0000000000000000e+00  7.9494997859001160e-02 1.5943899750709534e-01 0.0000000000000000e+00  7.4928998947143555e-02 1.4505699276924133e-01 0.0000000000000000e+00  8.2030996680259705e-02 1.6454100608825684e-01 0.0000000000000000e+00  7.8195996582508087e-02 1.5029899775981903e-01 0.0000000000000000e+00  6.2825001776218414e-02 1.0827399790287018e-01 0.0000000000000000e+00  6.9897003471851349e-02 1.2644700706005096e-01 0.0000000000000000e+00  7.5124002993106842e-02 1.4330799877643585e-01 0.0000000000000000e+00  7.9452000558376312e-02 1.6045500338077545e-01 0.0000000000000000e+00  8.3632998168468475e-02 1.7774699628353119e-01 0.0000000000000000e+00  8.0755002796649933e-02 1.6569699347019196e-01 0.0000000000000000e+00  6.9360002875328064e-02 1.2728799879550934e-01 0.0000000000000000e+00  -5.7004000991582870e-02 8.5500001907348633e-02 0.0000000000000000e+00  -6.6342003643512726e-02 7.2837002575397491e-02 0.0000000000000000e+00  -6.1312001198530197e-02 8.1524997949600220e-02 0.0000000000000000e+00  -3.2827999442815781e-02 1.1739899963140488e-01 0.0000000000000000e+00  -3.7124998867511749e-02 1.1141300201416016e-01 0.0000000000000000e+00  -4.3591998517513275e-02 1.0368199646472931e-01 0.0000000000000000e+00  -4.6806000173091888e-02 9.8711997270584106e-02 0.0000000000000000e+00  -4.4743999838829041e-02 -8.2734003663063049e-02 0.0000000000000000e+00  -4.7775998711585999e-02 -8.0232001841068268e-02 0.0000000000000000e+00  -4.1675999760627747e-02 -8.1047996878623962e-02 0.0000000000000000e+00  -3.7971999496221542e-02 -8.2960002124309540e-02 0.0000000000000000e+00  -4.7370001673698425e-02 -8.5652001202106476e-02 0.0000000000000000e+00  -8.7959997355937958e-02 -7.5768001377582550e-02 0.0000000000000000e+00  -7.9046003520488739e-02 -7.8538998961448669e-02 0.0000000000000000e+00  -8.6634002625942230e-02 -7.3972001671791077e-02 0.00000000000