<?xml version="1.0"?>
<VTKFile type="UnstructuredGrid"  version="0.1"  >
<UnstructuredGrid>
<Piece  NumberOfPoints="6340" NumberOfCells="12376">
<Points>
<DataArray  type="Float64"  NumberOfComponents="3"  format="ascii">-0.0195509996265173 0.02080300077795982 0  -0.02034799940884113 0.02152599953114986 0  -0.02054999954998493 0.02051999978721142 0  -0.02121400088071823 0.02136999927461147 0  -0.01976500079035759 0.01987599954009056 0  -0.01941500045359135 0.02168799936771393 0  -0.02001000009477139 0.02248799987137318 0  -0.01952799968421459 0.02328700013458729 0  -0.02057899907231331 0.02332999929785728 0  -0.01893699914216995 0.02240299992263317 0  -0.007571999914944172 0.01810899935662746 0  -0.008294999599456787 0.01893699914216995 0  -0.008621999993920326 0.01799499988555908 0  -0.009353999979794025 0.01886199973523617 0  -0.02556500025093555 0.08027400076389313 0  -0.02648199908435345 0.08088599890470505 0  -0.02666799910366535 0.08008100092411041 0  -0.02622699923813343 0.07342199981212616 0  -0.02683399990200996 0.07428900152444839 0  -0.02704700082540512 0.07337799668312073 0  -0.02776999957859516 0.07395999878644943 0  -0.01148799993097782 0.09051299840211868 0  -0.01239699963480234 0.09051600098609924 0  -0.01191399991512299 0.08967500180006027 0  -0.0193840004503727 0.08556000143289566 0  -0.01838500052690506 0.08555400371551514 0  -0.01882600039243698 0.08639699965715408 0  -0.01894400082528591 0.08471199870109558 0  -0.02255499921739101 0.02513499930500984 0  -0.02158699929714203 0.02508600056171417 0  -0.02204700000584126 0.02599699981510639 0  -0.02246199920773506 0.02690800093114376 0  -0.02303499914705753 0.02606000006198883 0  -0.02106999978423119 0.02595200017094612 0  -0.02058400027453899 0.02504600025713444 0  -0.01956300064921379 0.02500399947166443 0  -0.02006700076162815 0.02590399980545044 0  -0.02208800055086613 0.02420200034976006 0  -0.0231500007212162 0.02432099916040897 0  -0.02243999950587749 0.02294000051915646 0  -0.02184499986469746 0.02217799983918667 0  -0.0215889997780323 0.02327599935233593 0  -0.02096600085496902 0.02240799926221371 0  -0.01599700003862381 0.02198000065982342 0  -0.01651700027287006 0.02110300026834011 0  -0.01544800028204918 0.02108000032603741 0  -0.01699299924075603 0.02210099995136261 0  -0.01800999976694584 0.02216099947690964 0  -0.01751199923455715 0.02303300052881241 0  0.04148700088262558 0.0849049985408783 0  0.04136199876666069 0.08402600139379501 0  0.04261700063943863 0.0843840017914772 0  0.04170000180602074 0.09640700370073318 0  0.04242900013923645 0.09683100134134293 0  0.0414469987154007 0.09731300175189972 0  0.02564699947834015 0.1050779968500137 0  0.02577199973165989 0.1041240021586418 0  0.02661300078034401 0.104602999985218 0  0.02475900016725063 0.1055139973759651 0  0.02487000077962875 0.1043549999594688 0  -0.005365999881178141 0.09887599945068359 0  -0.004459000192582607 0.09891600161790848 0  -0.004989000037312508 0.09975399821996689 0  -0.004075999837368727 0.09979899972677231 0  -0.01624800078570843 0.1005090028047562 0  -0.01663300022482872 0.09979099780321121 0  -0.01560899987816811 0.09987500309944153 0  -0.01715599931776524 0.1007329970598221 0  -0.01254300028085709 0.1064649969339371 0  -0.01273399963974953 0.1073750033974648 0  -0.01331099960952997 0.1066590026021004 0  -0.00918199960142374 0.09807299822568893 0  -0.008321999572217464 0.09805399924516678 0  -0.008848000317811966 0.09890200197696686 0  -0.01003899984061718 0.09808900207281113 0  -0.009513000026345253 0.09724300354719162 0  -0.01037000026553869 0.0972599983215332 0  -0.01247499976307154 0.1005960032343864 0  -0.01296399999409914 0.1014069989323616 0  -0.01336599979549646 0.1005960032343864 0  -0.01142899971455336 0.09894499927759171 0  -0.01230200007557869 0.09895899891853333 0  -0.01176400016993284 0.09811999648809433 0  0.01190700009465218 0.0952569991350174 0  0.01285899989306927 0.09526800364255905 0  0.01233800034970045 0.09612700343132019 0  0.007550000213086605 0.07876600325107574 0  0.008174999617040157 0.07792200148105621 0  0.008500000461935997 0.07877600193023682 0  -0.007249999791383743 0.01724000088870525 0  -0.006390000227838755 0.01748999953269958 0  -0.008158000186085701 0.01710299961268902 0  -0.009105999954044819 0.01695900037884712 0  -0.01293000020086765 0.01682999916374683 0  -0.01321300026029348 0.01791599951684475 0  -0.01383399963378906 0.0170230008661747 0  -0.01235099975019693 0.01773599907755852 0  -0.01239600032567978 0.01876099966466427 0  -0.01149400044232607 0.0179239995777607 0  -0.01195899955928326 0.02169300056993961 0  -0.012449000030756 0.02073699980974197 0  -0.01146699953824282 0.02078299969434738 0  -0.01096499990671873 0.0199350006878376 0  -0.01040199957787991 0.02078399993479252 0  -0.01195599976927042 0.01978100091218948 0  -0.01295099966228008 0.0217099990695715 0  -0.01443399954587221 0.0209369994699955 0  -0.01495900005102158 0.02191399969160557 0  -0.01394900027662516 0.02179599925875664 0  -0.008833000436425209 0.0198149997740984 0  -0.01094899978488684 0.03070200048387051 0  -0.01146399974822998 0.02983300015330315 0  -0.01042500045150518 0.02977799996733665 0  -0.00519500020891428 0.02953300066292286 0  -0.005727999843657017 0.03045099973678589 0  -0.006242000032216311 0.02957900054752827 0  -0.007822000421583652 0.01990099996328354 0  -0.00518900016322732 0.01943599991500378 0  -0.006221999879926443 0.01923500001430511 0  -0.005388999823480844 0.01858899928629398 0  -0.00546000013127923 0.0177609995007515 0  -0.004430000204592943 0.01806000061333179 0  0.04370899870991707 0.09242700040340424 0  0.04477300122380257 0.09203899651765823 0  0.04410300031304359 0.09309899806976318 0  0.04303300008177757 0.0931679978966713 0  0.0174770001322031 0.059944998472929 0  0.01855799928307533 0.05994899943470955 0  0.01803199946880341 0.06080200150609016 0  0.03218600153923035 0.04618800058960915 0  0.03272100165486336 0.04517599940299988 0  0.03317200019955635 0.04595800116658211 0  0.03411699831485748 0.05061500146985054 0  0.0350789986550808 0.05002399906516075 0  0.0353740006685257 0.05079900100827217 0  0.0336260013282299 0.05403099954128265 0  0.03267300128936768 0.05403300002217293 0  0.03327099978923798 0.05314699932932854 0  0.03288599848747253 0.05229099839925766 0  0.03391100093722343 0.05226799845695496 0  0.03227400034666061 0.05316099897027016 0  0.03168600052595139 0.05403700098395348 0  0.03184200078248978 0.05232499912381172 0  0.03134199976921082 0.05150299891829491 0  0.03079099953174591 0.05234299972653389 0  0.03027299977838993 0.05150499939918518 0  0.04108799993991852 0.09471800178289413 0  0.04010099917650223 0.09470999985933304 0  0.04063399881124496 0.09386599808931351 0  0.0396680012345314 0.09382499754428864 0  0.009430999867618084 0.02552100084722042 0  0.01023900043219328 0.02603800036013126 0  0.009415999986231327 0.02657699957489967 0  0.01030000019818544 0.02699499949812889 0  0.02973200008273125 0.05234799906611443 0  0.02548100054264069 0.0540199987590313 0  0.02494899928569794 0.05487100034952164 0  0.02440899983048439 0.0540039986371994 0  0.02600900083780289 0.05488499999046326 0  0.03210899978876114 0.05490700155496597 0  0.02089500054717064 0.03698499873280525 0  0.01994800008833408 0.03680700063705444 0  0.02041600085794926 0.03595399856567383 0  0.01488700043410063 0.04186299815773964 0  0.01388199999928474 0.04181899875402451 0  0.01439999975264072 0.04096899926662445 0  0.01339299976825714 0.04092700034379959 0  0.0128760002553463 0.04177499935030937 0  0.01290300022810698 0.04002900049090385 0  0.01391199976205826 0.04007799923419952 0  0.01436999998986721 0.04271199926733971 0  -0.02763500064611435 0.07485000044107437 0  -0.02653799951076508 0.07511900365352631 0  -0.02751100063323975 0.07566399872303009 0  -0.0258760005235672 0.07431799918413162 0  -0.02548000030219555 0.07514499872922897 0  -0.02445399947464466 0.07517600059509277 0  -0.02491799928247929 0.07599999755620956 0  -0.02389200031757355 0.07435499876737595 0  -0.02344799973070621 0.07519300282001495 0  -0.0239499993622303 0.0760200023651123 0  -0.0278680007904768 0.07303500175476074 0  -0.01826599985361099 0.08722700178623199 0  -0.01926600001752377 0.08723700046539307 0  -0.01679299958050251 0.09643299877643585 0  -0.01769700087606907 0.0964760035276413 0  -0.01719300076365471 0.09561699628829956 0  -0.01809299923479557 0.09566400200128555 0  -0.01760100014507771 0.09480100125074387 0  -0.01578399911522865 0.09905699640512466 0  -0.01493600010871887 0.09904100000858307 0  -0.01467599999159575 0.0998539999127388 0  -0.01284699980169535 0.08968000113964081 0  -0.01109699998050928 0.08298400044441223 0  -0.01010300032794476 0.0829790011048317 0  -0.01054400019347668 0.08382099866867065 0  -0.0100100003182888 0.08465299755334854 0  -0.009561000391840935 0.08381299674510956 0  -0.01519499998539686 0.08127299696207047 0  -0.01572399958968163 0.08041100203990936 0  -0.01473699975758791 0.08041399717330933 0  -0.01374899968504906 0.08041699975728989 0  -0.0142639996483922 0.0795539990067482 0  -0.01794599927961826 0.08470799773931503 0  -0.01751199923455715 0.08385200053453445 0  -0.0185100007802248 0.08385200053453445 0  -0.01950900070369244 0.08385399729013443 0  -0.02448300085961819 0.0768589973449707 0  -0.02497100085020065 0.07942499965429306 0  -0.02453400008380413 0.08027800172567368 0  -0.02352599985897541 0.02505199983716011 0  -0.02388999983668327 0.02576000057160854 0  -0.02414200082421303 0.02645899914205074 0  -0.02441300079226494 0.02721199952065945 0  -0.02341100014746189 0.02700800076127052 0  -0.02006999962031841 0.02416200004518032 0  -0.01903899945318699 0.02410699985921383 0  -0.02110300026834011 0.02418499998748302 0  -0.02278400026261806 0.02360999956727028 0  -0.0174540001899004 0.01826100051403046 0  -0.01707099936902523 0.01902399957180023 0  -0.01827000081539154 0.0186500009149313 0  -0.01661599986255169 0.01786099933087826 0  -0.01848400011658669 0.02319700084626675 0  -0.016501000151038
[...]
<PointData  Vectors="velocity"> 
<DataArray  type="Float64"  Name="velocity"  NumberOfComponents="3" format="ascii">5.4699997417628765e-04 5.1500002155080438e-04 0.0000000000000000e+00  4.0399999124929309e-04 3.8300000596791506e-04 0.0000000000000000e+00  7.5599999399855733e-04 0.0000000000000000e+00 0.0000000000000000e+00  1.2860000133514404e-03 -2.6500000967644155e-04 0.0000000000000000e+00  4.9499998567625880e-04 0.0000000000000000e+00 0.0000000000000000e+00  1.0819999733939767e-03 9.7100000130012631e-04 0.0000000000000000e+00  8.6299999384209514e-04 7.7199999941512942e-04 0.0000000000000000e+00  1.2550000101327896e-03 1.0679999832063913e-03 0.0000000000000000e+00  5.4500001715496182e-04 4.9100001342594624e-04 0.0000000000000000e+00  1.7460000235587358e-03 1.4880000380799174e-03 0.0000000000000000e+00  -5.0050001591444016e-03 -4.6099998871795833e-04 0.0000000000000000e+00  -3.9189998060464859e-03 4.4900001375935972e-04 0.0000000000000000e+00  -4.6140002086758614e-03 -1.6999999934341758e-04 0.0000000000000000e+00  -2.2130000870674849e-03 1.0590000310912728e-03 0.0000000000000000e+00  -5.0010001286864281e-03 -6.4249997958540916e-03 0.0000000000000000e+00  -1.5109999803826213e-03 -9.8219998180866241e-03 0.0000000000000000e+00  -1.5109999803826213e-03 -9.8219998180866241e-03 0.0000000000000000e+00  -4.9649998545646667e-03 -1.8185000866651535e-02 0.0000000000000000e+00  -4.5980000868439674e-03 -1.2195000424981117e-02 0.0000000000000000e+00  -4.7639999538660049e-03 -1.2447999790310860e-02 0.0000000000000000e+00  0.0000000000000000e+00 -1.0576999746263027e-02 0.0000000000000000e+00  -5.7140998542308807e-02 -4.8542998731136322e-02 0.0000000000000000e+00  -5.1088001579046249e-02 -3.6162998527288437e-02 0.0000000000000000e+00  -6.4286001026630402e-02 -4.9065001308917999e-02 0.0000000000000000e+00  -2.8570000082254410e-02 -1.5895999968051910e-02 0.0000000000000000e+00  -3.6377001553773880e-02 -2.2756999358534813e-02 0.0000000000000000e+00  -3.1020000576972961e-02 -1.3209999538958073e-02 0.0000000000000000e+00  -3.6699000746011734e-02 -2.6282999664545059e-02 0.0000000000000000e+00  -1.9599999359343201e-04 -1.4600000577047467e-04 0.0000000000000000e+00  -2.2400000307243317e-04 -1.5599999460391700e-04 0.0000000000000000e+00  -5.2499998128041625e-04 -3.7699998938478529e-04 0.0000000000000000e+00  -9.0300000738352537e-04 -6.3500000396743417e-04 0.0000000000000000e+00  -4.1400000918656588e-04 -3.0899999546818435e-04 0.0000000000000000e+00  -5.0399999599903822e-04 -3.3000000985339284e-04 0.0000000000000000e+00  4.3000000005122274e-05 8.1999998656101525e-05 0.0000000000000000e+00  6.2900001648813486e-04 5.5100000463426113e-04 0.0000000000000000e+00  -2.3700000019744039e-04 -9.6999996458180249e-05 0.0000000000000000e+00  -4.7000001359265298e-05 -2.9000000722589903e-05 0.0000000000000000e+00  2.2670000325888395e-03 -1.8649999983608723e-03 0.0000000000000000e+00  2.2670000325888395e-03 -7.5599999399855733e-04 0.0000000000000000e+00  1.7900000093504786e-03 -5.1699997857213020e-04 0.0000000000000000e+00  1.5500000154133886e-04 1.5000000712461770e-04 0.0000000000000000e+00  3.2099999953061342e-04 3.0200000037439167e-04 0.0000000000000000e+00  3.8250000216066837e-03 2.9589999467134476e-03 0.0000000000000000e+00  2.7479999698698521e-03 2.2259999532252550e-03 0.0000000000000000e+00  3.2870001159608364e-03 2.5969999842345715e-03 0.0000000000000000e+00  3.2200000714510679e-03 2.5559999048709869e-03 0.0000000000000000e+00  2.4419999681413174e-03 2.0159999839961529e-03 0.0000000000000000e+00  3.2699999865144491e-03 2.5609999429434538e-03 0.0000000000000000e+00  4.0396999567747116e-02 9.2238999903202057e-02 0.0000000000000000e+00  3.9363000541925430e-02 9.1770999133586884e-02 0.0000000000000000e+00  1.7100999131798744e-02 8.3109997212886810e-03 0.0000000000000000e+00  -4.7349999658763409e-03 5.9514001011848450e-02 0.0000000000000000e+00  -5.1910001784563065e-03 5.3954001516103745e-02 0.0000000000000000e+00  -1.1598000302910805e-02 5.3491000086069107e-02 0.0000000000000000e+00  -1.1708600074052811e-01 -7.2531998157501221e-02 0.0000000000000000e+00  -1.2539799511432648e-01 -6.2836997210979462e-02 0.0000000000000000e+00  -1.1573799699544907e-01 -6.2116999179124832e-02 0.0000000000000000e+00  -1.1718399822711945e-01 -8.1318996846675873e-02 0.0000000000000000e+00  -1.2883700430393219e-01 -7.0882000029087067e-02 0.0000000000000000e+00  -3.3091999590396881e-02 -9.1571003198623657e-02 0.0000000000000000e+00  -3.9092998951673508e-02 -1.0405000299215317e-01 0.0000000000000000e+00  -3.5999998450279236e-02 -9.0938001871109009e-02 0.0000000000000000e+00  -4.2442999780178070e-02 -1.0275500267744064e-01 0.0000000000000000e+00  9.9069997668266296e-03 2.1665999665856361e-02 0.0000000000000000e+00  1.0058999992907047e-02 2.2774999961256981e-02 0.0000000000000000e+00  8.8510001078248024e-03 1.9410999491810799e-02 0.0000000000000000e+00  -7.8010000288486481e-03 -8.5559999570250511e-03 0.0000000000000000e+00  1.9630000460892916e-03 7.6779997907578945e-03 0.0000000000000000e+00  -8.8309999555349350e-03 -6.8000000901520252e-03 0.0000000000000000e+00  -8.5619995370507240e-03 -6.8000000901520252e-03 0.0000000000000000e+00  -1.2380000203847885e-02 -4.1653998196125031e-02 0.0000000000000000e+00  -1.6620000824332237e-02 -5.3706001490354538e-02 0.0000000000000000e+00  -1.3187999837100506e-02 -4.2367000132799149e-02 0.0000000000000000e+00  -8.5530001670122147e-03 -3.0461000278592110e-02 0.0000000000000000e+00  -1.4216000214219093e-02 -4.0844000875949860e-02 0.0000000000000000e+00  -1.0135999880731106e-02 -2.9108999297022820e-02 0.0000000000000000e+00  2.1329999435693026e-03 8.4100000094622374e-04 0.0000000000000000e+00  3.8749999366700649e-03 5.3519997745752335e-03 0.0000000000000000e+00  4.6250000596046448e-03 7.6879998669028282e-03 0.0000000000000000e+00  -2.5039999745786190e-03 -1.1288000270724297e-02 0.0000000000000000e+00  2.8199999360367656e-04 -3.1979999039322138e-03 0.0000000000000000e+00  -1.8479999853298068e-03 -1.0029000230133533e-02 0.0000000000000000e+00  -1.1114799976348877e-01 -1.3271500170230865e-01 0.0000000000000000e+00  -1.1061300337314606e-01 -1.2073799967765808e-01 0.0000000000000000e+00  -1.1830099672079086e-01 -1.3137499988079071e-01 0.0000000000000000e+00  -1.7827000468969345e-02 -1.2183299660682678e-01 0.0000000000000000e+00  -5.2330000326037407e-03 -1.0939700156450272e-01 0.0000000000000000e+00  -1.2120000086724758e-02 -1.0770999640226364e-01 0.0000000000000000e+00  2.2670000325888395e-03 -7.5599999399855733e-04 0.0000000000000000e+00  2.4969999212771654e-03 -7.5599999399855733e-04 0.0000000000000000e+00  2.0250000525265932e-03 -9.9700002465397120e-04 0.0000000000000000e+00  1.7729999963194132e-03 -1.2489999644458294e-03 0.0000000000000000e+00  7.5599999399855733e-04 -7.5599999399855733e-04 0.0000000000000000e+00  4.1099998634308577e-04 5.1899999380111694e-04 0.0000000000000000e+00  5.0800002645701170e-04 -5.0800002645701170e-04 0.0000000000000000e+00  -2.4999999368446879e-05 3.7399999564513564e-04 0.0000000000000000e+00  8.7799999164417386e-04 1.1980000417679548e-03 0.0000000000000000e+00  -5.2699999650940299e-04 4.1499998769722879e-04 0.0000000000000000e+00  4.0710000321269035e-03 4.2809997685253620e-03 0.0000000000000000e+00  3.1419999431818724e-03 3.0950000509619713e-03 0.0000000000000000e+00  2.9190001077950001e-03 3.4920000471174717e-03 0.0000000000000000e+00  1.5050000511109829e-03 2.6149998884648085e-03 0.0000000000000000e+00  2.2700000554323196e-03 3.7539999466389418e-03 0.0000000000000000e+00  1.8289999570697546e-03 2.2380000445991755e-03 0.0000000000000000e+00  4.3649999424815178e-03 3.8970001041889191e-03 0.0000000000000000e+00  3.3869999460875988e-03 2.7169999666512012e-03 0.0000000000000000e+00  4.3440000154078007e-03 3.3519999124109745e-03 0.0000000000000000e+00  4.5170001685619354e-03 3.6500000860542059e-03 0.0000000000000000e+00  -7.6099997386336327e-04 2.1959999576210976e-03 0.0000000000000000e+00  -9.1000000247731805e-04 1.2035000137984753e-02 0.0000000000000000e+00  -4.9399997806176543e-04 1.1811000294983387e-02 0.0000000000000000e+00  3.8899999344721437e-04 1.3287000358104706e-02 0.0000000000000000e+00  5.0249998457729816e-03 -8.6299999384209514e-04 0.0000000000000000e+00  6.4380001276731491e-03 1.1739999754354358e-03 0.0000000000000000e+00  3.7960000336170197e-03 4.4809998944401741e-03 0.0000000000000000e+00  -1.7689999658614397e-03 1.0669999755918980e-03 0.0000000000000000e+00  -4.8799999058246613e-03 -7.9169999808073044e-03 0.0000000000000000e+00  -4.7720000147819519e-03 -3.6549998912960291e-03 0.0000000000000000e+00  -5.0360001623630524e-03 -6.4639998599886894e-03 0.0000000000000000e+00  2.7459999546408653e-03 -7.5599999399855733e-04 0.0000000000000000e+00  3.0219999607652426e-03 -7.5599999399855733e-04 0.0000000000000000e+00  2.3843999952077866e-02 7.1727998554706573e-02 0.0000000000000000e+00  2.4627000093460083e-02 6.7103996872901917e-02 0.0000000000000000e+00  2.0524999126791954e-02 6.7501001060009003e-02 0.0000000000000000e+00  1.9651999697089195e-02 7.2353996336460114e-02 0.0000000000000000e+00  9.7962997853755951e-02 5.2521001547574997e-02 0.0000000000000000e+00  9.5228001475334167e-02 6.3266001641750336e-02 0.0000000000000000e+00  9.6329003572463989e-02 6.0191001743078232e-02 0.0000000000000000e+00  1.3229000382125378e-02 2.0306000486016273e-02 0.0000000000000000e+00  5.7660001330077648e-03 3.0219999607652426e-03 0.0000000000000000e+00  5.5209998972713947e-03 3.0219999607652426e-03 0.0000000000000000e+00  1.5667000785470009e-02 3.1993001699447632e-02 0.0000000000000000e+00  4.0040002204477787e-03 3.7779998965561390e-03 0.0000000000000000e+00  3.5300001036375761e-03 3.7779998965561390e-03 0.0000000000000000e+00  2.3200999945402145e-02 5.4409999400377274e-02 0.0000000000000000e+00  2.8555000200867653e-02 6.1174001544713974e-02 0.0000000000000000e+00  2.3403000086545944e-02 5.2055999636650085e-02 0.0000000000000000e+00  2.4024000391364098e-02 4.9607001245021820e-02 0.0000000000000000e+00  1.8188999965786934e-02 4.3076999485492706e-02 0.0000000000000000e+00  2.9199000447988510e-02 5.8795001357793808e-02 0.0000000000000000e+00  3.4267000854015350e-02 6.7610003054141998e-02 0.0000000000000000e+00  3.1523998826742172e-02 5.5624000728130341e-02 0.0000000000000000e+00  3.3472001552581787e-02 5.3144998848438263e-02 0.0000000000000000e+00  3.8646999746561050e-02 6.1347000300884247e-02 0.0000000000000000e+00  3.9682999253273010e-02 5.9101998805999756e-02 0.0000000000000000e+00  6.5170000307261944e-03 7.2884999215602875e-02 0.0000000000000000e+00  4.9479999579489231e-03 7.6608002185821533e-02 0.0000000000000000e+00  1.2830999679863453e-02 7.9441003501415253e-02 0.0000000000000000e+00  1.2280999682843685e-02 8.3403997123241425e-02 0.0000000000000000e+00  6.0439999215304852e-03 2.3400000645779073e-04 0.0000000000000000e+00  6.0439999215304852e-03 4.8700001207180321e-04 0.0000000000000000e+00  3.3680000342428684e-03 1.4440000522881746e-03 0.0000000000000000e+00  4.5219999738037586e-03 2.3080001119524240e-03 0.0000000000000000e+00  4.4984001666307449e-02 6.6822998225688934e-02 0.0000000000000000e+00  6.9737002253532410e-02 8.1448003649711609e-02 0.0000000000000000e+00  7.3265999555587769e-02 8.3929002285003662e-02 0.0000000000000000e+00  7.4203997850418091e-02 7.8916996717453003e-02 0.0000000000000000e+00  6.8510003387928009e-02 8.6285002529621124e-02 0.0000000000000000e+00  3.3190999180078506e-02 6.9913998246192932e-02 0.0000000000000000e+00  2.2715000435709953e-02 1.3635000213980675e-02 0.0000000000000000e+00  2.4485999718308449e-02 1.4322999864816666e-02 0.0000000000000000e+00  1.9200999289751053e-02 1.1463000439107418e-02 0.0000000000000000e+00  5.7907998561859131e-02 1.6909999772906303e-02 0.0000000000000000e+00  5.8210998773574829e-02 1.4066999778151512e-02 0.0000000000000000e+00  5.4873000830411911e-02 1.5568000264465809e-02 0.0000000000000000e+00  5.5066000670194626e-02 1.3280999846756458e-02 0.0000000000000000e+00  5.8221999555826187e-02 1.1462000198662281e-02 0.0000000000000000e+00  5.1001001149415970e-02 1.3008999638259411e-02 0.0000000000000000e+00  5.1011998206377029e-02 1.4724000357091427e-02 0.0000000000000000e+00  6.1122000217437744e-02 1.5212000347673893e-02 0.0000000000000000e+00  -2.5599999935366213e-04 -1.0320999659597874e-02 0.0000000000000000e+00  -5.3530000150203705e-03 -1.3220000080764294e-02 0.0000000000000000e+00  -4.9000000581145287e-04 -1.0088000446557999e-02 0.0000000000000000e+00  -5.3249998018145561e-03 -1.9674999639391899e-02 0.0000000000000000e+00  -6.1070001684129238e-03 -2.1230999380350113e-02 0.0000000000000000e+00  -7.7669997699558735e-03 -3.0387999489903450e-02 0.0000000000000000e+00  -6.7770001478493214e-03 -2.3826999589800835e-02 0.0000000000000000e+00  -8.6620002985000610e-03 -3.8141999393701553e-02 0.0000000000000000e+00  -9.9889999255537987e-03 -4.0334999561309814e-02 0.0000000000000000e+00  -8.9260004460811615e-03 -3.2767999917268753e-02 0.0000000000000000e+00  0.0000000000000000e+00 -1.0576999746263027e-02 0.0000000000000000e+00  -3.2751001417636871e-02 -1.0114000178873539e-02 0.0000000000000000e+00  -2.5705000385642052e-02 -4.6569998376071453e-03 0.0000000000000000e+00  8.6390003561973572e-03 2.3651000112295151e-02 0.0000000000000000e+00  1.1435000225901604e-02 2.7220999822020531e-02 0.0000000000000000e+00  7.5119999237358570e-03 2.4594999849796295e-02 0.0000000000000000e+00  9.8400004208087921e-03 2.7255000546574593e-02 0.0000000000000000e+00  7.8760003671050072e-03 2.5498000904917717e-02 0.0000000000000000e+00  8.9940000325441360e-03 2.0686000585556030e-02 0.0000000000000000e+00  7.2209998033940792e-03 1.6031000763177872e-02 0.0000000000000000e+00  7.0980000309646130e-03 1.4798000454902649e-02 0.0000000000000000e+00  -5.6331001222133636e-02 -3.7645999342203140e-02 0.0000000000000000e+00  -1.0236799716949463e-01 -1.1065100133419037e-01 0.0000000000000000e+00  -1.0829100012779236e-01 -1.2000100314617157e-01 0.0000000000000000e+00  -1.0502000153064728e-01 -1.1018999665975571e-01 0.0000000000000000e+00  -1.0867699980735779e-01 -1.1022199690341949e-01 0.0000000000000000e+00  -1.1112300306558609e-01 -1.1985199898481369e-01 0.0000000000000000e+00  -6.8150997161865234e-02 -8.7673999369144440e-02 0.0000000000000000e+00  -6.1432998627424240e-02 -8.9938998222351074e-02 0.0000000000000000e+00  -6.8883001804351807e-02 -9.8426997661590576e-02 0.0000000000000000e+00  -7.5839996337890625e-02 -1.0658899694681168e-01 0.0000000000000000e+00  -6.8466000258922577e-02 -1.0857299715280533e-01 0.0000000000000000e+00  -4.4704001396894455e-02 -3.3723998814821243e-02 0.0000000000000000e+00  -4.8980001360177994e-02 -4.4482000172138214e-02 0.0000000000000000e+00  -4.0934998542070389e-02 -3.6545000970363617e-02 0.0000000000000000e+00  -3.3128999173641205e-02 -2.8584999963641167e-02 0.0000000000000000e+00  -8.1569999456405640e-03 -2.5371000170707703e-02 0.0000000000000000e+00  -7.1530002169311047e-03 -1.3071999885141850e-02 0.0000000000000000e+00  -7.4570002034306526e-03 -1.2647000141441822e-02 0.0000000000000000e+00  2.2670000325888395e-03 -2.4530000519007444e-03 0.0000000000000000e+00  2.2670000325888395e-03 -3.0219999607652426e-03 0.0000000000000000e+00  2.4429999757558107e-03 -3.1979999039322138e-03 0.0000000000000000e+00  2.6320000179111958e-03 -3.3879999537020922e-03 0.0000000000000000e+00  -4.3399998685345054e-04 -2.7300001238472760e-04 0.0000000000000000e+00  6.7899998975917697e-04 5.9100001817569137e-04 0.0000000000000000e+00  1.4789999695494771e-03 1.2110000243410468e-03 0.0000000000000000e+00  1.7100000695791095e-04 1.6799999866634607e-04 0.0000000000000000e+00  2.2670000325888395e-03 -1.2939999578520656e-03 0.0000000000000000e+00  0.0000000000000000e+00 0.0000000000000000e+00 0.0000000000000000e+00  7.9600000753998756e-04 7.1799999568611383e-04 0.0000000000000000e+00  0.0000000000000000e+00 0.0000000000000000e+00 0.0000000000000000e+00  0.0000000000000000e+00 0.0000000000000000e+00 0.0000000000000000e+00  2.2479998879134655e-03 1.8279999494552612e-03 0.0000000000000000e+00  4.2039998807013035e-03 3.1880000606179237e-03 0.0000000000000000e+00  5.0340001471340656e-03 3.7620000075548887e-03 0.0000000000000000e+00  3.9280001074075699e-03 2.9579999390989542e-03 0.0000000000000000e+00  -1.8489999929443002e-03 9.9550001323223114e-03 0.0000000000000000e+00  -1.5790000325068831e-03 9.9400002509355545e-03 0.0000000000000000e+00  -2.6440001092851162e-03 7.4209999293088913e-03 0.0000000000000000e+00  3.6230001132935286e-03 4.7269999049603939e-03 0.0000000000000000e+00  4.4080000370740891e-03 7.3609999381005764e-03 0.0000000000000000e+00  4.3299999088048935e-03 8.4149995818734169e-03 0.0000000000000000e+00  5.5120000615715981e-03 8.8780000805854797e-03 0.0000000000000000e+00  3.1830000225454569e-03 6.3709998503327370e-03 0.0000000000000000e+00  3.2150000333786011e-03 5.8100000023841858e-03 0.0000000000000000e+00  3.8089998997747898e-03 9.0239997953176498e-03 0.0000000000000000e+00  3.0040000565350056e-03 9.2249996960163116e-03 0.0000000000000000e+00  4.3480000458657742e-03 1.1163000017404556e-02 0.0000000000000000e+00  1.0738999582827091e-02 5.9381999075412750e-02 0.0000000000000000e+00  9.2949997633695602e-03 5.1876999437808990e-02 0.0000000000000000e+00  5.1429998129606247e-03 5.3024001419544220e-02 0.0000000000000000e+00  3.2193999737501144e-02 9.2587001621723175e-02 0.0000000000000000e+00  2.6325000450015068e-02 8.7476000189781189e-02 0.0000000000000000e+00  2.6587000116705894e-02 9.1638997197151184e-02 0.0000000000000000e+00  4.9745999276638031e-02 1.2482500076293945e-01 0.0000000000000000e+00  4.9451000988483429e-02 1.2943199276924133e-01 0.0000000000000000e+00  5.1796998828649521e-02 1.2937000393867493e-01 0.0000000000000000e+00  1.6620999202132225e-02 8.3109997212886810e-03 0.0000000000000000e+00  -2.5715000927448273e-02 4.9729000777006149e-02 0.0000000000000000e+00  -3.3105000853538513e-02 4.6918999403715134e-02 0.0000000000000000e+00  -2.4712000042200089e-02 5.6175999343395233e-02 0.0000000000000000e+00  -1.6953999176621437e-02 5.8993000537157059e-02 0.0000000000000000e+00  -2.0827999338507652e-02 5.1288001239299774e-02 0.0000000000000000e+00  -1.6070999205112457e-02 5.2691999822854996e-02 0.0000000000000000e+00  1.0971000418066978e-02 8.6110003292560577e-02 0.0000000000000000e+00  1.9905000925064087e-02 8.9750997722148895e-02 0.0000000000000000e+00  1.8938999623060226e-02 9.2381998896598816e-02 0.0000000000000000e+00  2.7219999581575394e-02 9.5896996557712555e-02 0.0000000000000000e+00  1.9700000120792538e-04 6.5885998308658600e-02 0.0000000000000000e+00  -8.7299998849630356e-03 6.1512999236583710e-02 0.0000000000000000e+00  -9.5440000295639038e-03 6.5949000418186188e-02 0.0000000000000000e+00  -1.5274000354111195e-02 6.5848998725414276e-02 0.0000000000000000e+00  -1.6504999250173569e-02 6.9664999842643738e-02 0.0000000000000000e+00  -7.2369999252259731e-03 7.4266999959945679e-02 0.0000000000000000e+00  -1.5119999879971147e-03 6.9532997906208038e-02 0.0000000000000000e+00  -1.1595500260591507e-01 -9.7841002047061920e-02 0.0000000000000000e+00  -1.1357700079679489e-01 -1.0407400131225586e-01 0.0000000000000000e+00  -1.2537600100040436e-01 -9.8534002900123596e-02 0.0000000000000000e+00  -1.3587500154972076e-01 -7.4589997529983521e-02 0.0000000000000000e+00  -1.2556600570678711e-01 -8.0567002296447754e-02 0.0000000000000000e+00  -1.3053299486637115e-01 -8.4803000092506409e-02 0.0000000000000000e+00  -1.1680500209331512e-01 -8.9818999171257019e-02 0.0000000000000000e+00  -2.2407999262213707e-02 -6.6821999847888947e-02 0.0000000000000000e+00  -1.9334999844431877e-02 -5.5077001452445984e-02 0.0000000000000000e+00  -1.7702000215649605e-02 -5.4588001221418381e-02 0.0000000000000000e+00  -2.1222999319434166e-02 -6.6417001187801361e-02 0.0000000000000000e+00  -3.6837998777627945e-02 -1.0459800064563751e-01 0.0000000000000000e+00  -7.5250998139381409e-02 -1.4396099746227264e-01 0.0000000000000000e+00  -6.9014996290206909e-02 -1.4678999781608582e-01 0.0000000000000000e+00  -7.8328996896743774e-02 -1.5537600219249725