<?xml version="1.0"?>
<VTKFile type="UnstructuredGrid"  version="0.1"  >
<UnstructuredGrid>
<Piece  NumberOfPoints="6340" NumberOfCells="12376">
<Points>
<DataArray  type="Float64"  NumberOfComponents="3"  format="ascii">-0.0193060003221035 0.02073399908840656 0  -0.01990599930286407 0.0213600005954504 0  -0.02015000022947788 0.02039000019431114 0  -0.02060999907553196 0.02107900008559227 0  -0.0195470005273819 0.01981800049543381 0  -0.01913199946284294 0.02160399965941906 0  -0.01955799944698811 0.02231100015342236 0  -0.01910700090229511 0.02313200011849403 0  -0.01994300074875355 0.02300699986517429 0  -0.01868700049817562 0.02233099937438965 0  -0.009056000038981438 0.01761999912559986 0  -0.009661000221967697 0.01853399910032749 0  -0.009996999986469746 0.01759600080549717 0  -0.01060700044035912 0.01855099946260452 0  -0.02408500015735626 0.0712909996509552 0  -0.02497600018978119 0.07156199961900711 0  -0.02512199990451336 0.07080700248479843 0  -0.02432800084352493 0.06513699889183044 0  -0.02495699934661388 0.06572400033473969 0  -0.02510100044310093 0.06486400216817856 0  -0.02582000009715557 0.06516999751329422 0  -0.01175499986857176 0.08363500237464905 0  -0.01259300019592047 0.08341799676418304 0  -0.01205100025981665 0.08287999778985977 0  -0.01848999969661236 0.07759299874305725 0  -0.0175550002604723 0.07786399871110916 0  -0.01803000085055828 0.07844900339841843 0  -0.01801900006830692 0.07700099796056747 0  -0.02137400023639202 0.02425600029528141 0  -0.02060299925506115 0.02446500025689602 0  -0.02089699916541576 0.02514800056815147 0  -0.02115499973297119 0.02584400027990341 0  -0.02168199978768826 0.02494700066745281 0  -0.02012000046670437 0.02536300010979176 0  -0.01980599947273731 0.02460700087249279 0  -0.01899500004947186 0.02472800016403198 0  -0.01932300068438053 0.02548900060355663 0  -0.02107599936425686 0.02355399914085865 0  -0.0219149999320507 0.02338300086557865 0  -0.02146000042557716 0.02235000021755695 0  -0.02104699984192848 0.02173300087451935 0  -0.02075299993157387 0.02279799990355968 0  -0.02032800018787384 0.02208600006997585 0  -0.01626300066709518 0.02205199934542179 0  -0.0167590007185936 0.02117599919438362 0  -0.01584799960255623 0.02114900015294552 0  -0.01710399985313416 0.022172000259161 0  -0.01793899945914745 0.0221599992364645 0  -0.01746699959039688 0.02304200083017349 0  0.04061299934983253 0.07574299722909927 0  0.04031800106167793 0.07489699870347977 0  0.04156100004911423 0.07494500279426575 0  0.04315099865198135 0.08570600301027298 0  0.04390599951148033 0.08590999990701675 0  0.04282300174236298 0.08639699965715408 0  0.02538999915122986 0.09422600269317627 0  0.02558499947190285 0.09352000057697296 0  0.02645700052380562 0.09374699741601944 0  0.02441100031137466 0.09466599673032761 0  0.02460299991071224 0.09381400048732758 0  -0.007224000059068203 0.09150200337171555 0  -0.006403000093996525 0.09175799787044525 0  -0.006988999899476767 0.09227500110864639 0  -0.006155999843031168 0.09253700077533722 0  -0.01719900034368038 0.09018500149250031 0  -0.01748399995267391 0.0895489975810051 0  -0.01654000021517277 0.08984799683094025 0  -0.01806499995291233 0.09014700353145599 0  -0.01457600016146898 0.09560199826955795 0  -0.01487100031226873 0.09625700116157532 0  -0.01527400035411119 0.09556499868631363 0  -0.01046499982476234 0.08995000272989273 0  -0.009705999866127968 0.09014099836349487 0  -0.01028500031679869 0.0906670019030571 0  -0.01123400032520294 0.08976499736309052 0  -0.01065499987453222 0.08924099802970886 0  -0.01142499968409538 0.08905600011348724 0  -0.01373299956321716 0.09111800044775009 0  -0.01427400019019842 0.09162399917840958 0  -0.0145420003682375 0.09091299772262573 0  -0.01258699968457222 0.09009899944067001 0  -0.01338499970734119 0.08990900218486786 0  -0.01279900036752224 0.08939199894666672 0  0.01128499954938889 0.08907099813222885 0  0.01230399962514639 0.08894500136375427 0  0.01169100031256676 0.08963800221681595 0  0.007662000134587288 0.07777900248765945 0  0.00814099982380867 0.07696299999952316 0  0.008679999969899654 0.07765199989080429 0  -0.008809999562799931 0.01669999957084656 0  -0.008046999573707581 0.01685900054872036 0  -0.009624999947845936 0.01663899980485439 0  -0.01047599967569113 0.01657599955797195 0  -0.01388000044971704 0.01675000041723251 0  -0.01407200004905462 0.01786799915134907 0  -0.01466299965977669 0.01699200086295605 0  -0.01332299970090389 0.01763200014829636 0  -0.01331300009042025 0.01868399977684021 0  -0.01255299989134073 0.01775900088250637 0  -0.01278000045567751 0.02164099924266338 0  -0.01325799990445375 0.02069500088691711 0  -0.01239100005477667 0.02068199962377548 0  -0.01198600046336651 0.0197759997099638 0  -0.01144600007683039 0.02060100063681602 0  -0.01287300046533346 0.01969500072300434 0  -0.01364899985492229 0.02170900069177151 0  -0.01498899981379509 0.0209989994764328 0  -0.01538100000470877 0.02198199927806854 0  -0.01451999973505735 0.02184700034558773 0  -0.01009800005704165 0.01948300004005432 0  -0.01143299974501133 0.03074299916625023 0  -0.01192899979650974 0.02988599985837936 0  -0.01102000009268522 0.02977699972689152 0  -0.006397000048309565 0.02913299947977066 0  -0.006829000078141689 0.03012200072407722 0  -0.007327999919652939 0.02927299961447716 0  -0.009193000383675098 0.01948099955916405 0  -0.006901999935507774 0.01872700080275536 0  -0.007811999879777431 0.01863900013267994 0  -0.00711899995803833 0.01787599921226501 0  -0.007222999818623066 0.01703000068664551 0  -0.006310000084340572 0.01721999980509281 0  0.04516100138425827 0.08238600194454193 0  0.04590699821710587 0.08178199827671051 0  0.04579799994826317 0.08292199671268463 0  0.0447859987616539 0.08318000286817551 0  0.01423600036650896 0.05735800042748451 0  0.01518999971449375 0.0570949986577034 0  0.01481099985539913 0.05804400146007538 0  0.02586299926042557 0.04047099873423576 0  0.0262289997190237 0.03937400132417679 0  0.02672200091183186 0.03998799994587898 0  0.02817099913954735 0.04408600181341171 0  0.02897699922323227 0.04326700046658516 0  0.02936000004410744 0.04391000047326088 0  0.02820499986410141 0.04742100089788437 0  0.02731899917125702 0.04768100008368492 0  0.02774699963629246 0.04668699949979782 0  0.02726900018751621 0.04599199816584587 0  0.02821500040590763 0.04568799957633018 0  0.02682599984109402 0.04697500169277191 0  0.02640599943697453 0.04795699939131737 0  0.02630800008773804 0.04631299898028374 0  0.0257399994879961 0.04568200185894966 0  0.02534399926662445 0.04662000015377998 0  0.02476599998772144 0.04597999900579453 0  0.04260199889540672 0.08457300066947937 0  0.04154499992728233 0.08470600098371506 0  0.04216999933123589 0.08402200043201447 0  0.04113699868321419 0.08412899821996689 0  0.005373999942094088 0.02277299948036671 0  0.006045000161975622 0.02320699952542782 0  0.005423000082373619 0.02387399971485138 0  0.006149000022560358 0.02419500052928925 0  0.02438000030815601 0.04691800102591515 0  0.02072999998927116 0.04965100064873695 0  0.02034899964928627 0.0505950003862381 0  0.01976599916815758 0.04992600157856941 0  0.02130700089037418 0.05031900107860565 0  0.02692399919033051 0.04865600168704987 0  0.01539000030606985 0.03349500149488449 0  0.01459200028330088 0.03342299908399582 0  0.01492299977689981 0.03248099982738495 0  0.01073999982327223 0.03923400118947029 0  0.009914999827742577 0.03928099945187569 0  0.01028400007635355 0.03834399953484535 0  0.009457999840378761 0.03839199990034103 0  0.009088000282645226 0.03932800143957138 0  0.009003999643027782 0.03750000149011612 0  0.009828000329434872 0.0374549999833107 0  0.01037099957466125 0.04017199948430061 0  -0.0257520005106926 0.06598600000143051 0  -0.02473399974405766 0.06653299927711487 0  -0.02569000050425529 0.06673199683427811 0  -0.02405299991369247 0.06602399796247482 0  -0.02373499982059002 0.06685800105333328 0  -0.02276699990034103 0.06717800348997116 0  -0.02326199971139431 0.06776600331068039 0  -0.02218100056052208 0.06662199646234512 0  -0.02181800082325935 0.06747999787330627 0  -0.02234799973666668 0.06805899739265442 0  -0.02585499919950962 0.06432899832725525 0  -0.01757599972188473 0.07929400354623795 0  -0.01850299909710884 0.07903199642896652 0  -0.01728899963200092 0.0869389995932579 0  -0.01813100092113018 0.08675699681043625 0  -0.01757399924099445 0.08621499687433243 0  -0.0184129998087883 0.08603700250387192 0  -0.01786299981176853 0.08548499643802643 0  -0.01662000082433224 0.0891840010881424 0  -0.01583000086247921 0.08936599642038345 0  -0.01567400060594082 0.09004600346088409 0  -0.01290399953722954 0.08265399932861328 0  -0.01054999977350235 0.0777290016412735 0  -0.009619999676942825 0.07800000160932541 0  -0.01010600011795759 0.07857500016689301 0  -0.009701999835669994 0.07939500361680984 0  -0.009200000204145908 0.07883100211620331 0  -0.01430900022387505 0.07512299716472626 0  -0.01477899961173534 0.07422400265932083 0  -0.01384500041604042 0.07450900226831436 0  -0.01291000004857779 0.0747930034995079 0  -0.01336499955505133 0.07389699667692184 0  -0.01708300039172173 0.07727699726819992 0  -0.0166229996830225 0.0766730010509491 0  -0.01756300032138824 0.07639200240373611 0  -0.01850399933755398 0.07611200213432312 0  -0.02290499955415726 0.06863699853420258 0  -0.02349100075662136 0.07072100043296814 0  -0.02311000041663647 0.07158999890089035 0  -0.02215700037777424 0.02393000014126301 0  -0.02239000052213669 0.02446000091731548 0  -0.02253899909555912 0.02497000060975552 0  -0.0227000005543232 0.02552000060677528 0  -0.02190699987113476 0.02567199990153313 0  -0.01946800015866756 0.02386300079524517 0  -0.0186500009149313 0.02397399954497814 0  -0.02029100060462952 0.02372200042009354 0  -0.02168099954724312 0.0228509996086359 0  -0.01772600039839745 0.01833800040185452 0  -0.01735500060021877 0.01909900084137917 0  -0.01840000040829182 0.01872999966144562 0  -0.01703500002622604 0.01793500036001205 0  -0.01825799979269505 0.023134000
[...]
<PointData  Vectors="velocity"> 
<DataArray  type="Float64"  Name="velocity"  NumberOfComponents="3" format="ascii">2.7179999742656946e-03 1.6629999736323953e-03 0.0000000000000000e+00  2.7670001145452261e-03 1.8179999897256494e-03 0.0000000000000000e+00  3.7779998965561390e-03 -3.0219999607652426e-03 0.0000000000000000e+00  4.0429998189210892e-03 -3.5530000459402800e-03 0.0000000000000000e+00  3.2569998875260353e-03 -3.0219999607652426e-03 0.0000000000000000e+00  5.2419998683035374e-03 3.4940000623464584e-03 0.0000000000000000e+00  5.9270001947879791e-03 4.1269999928772449e-03 0.0000000000000000e+00  9.2139998450875282e-03 6.2420000322163105e-03 0.0000000000000000e+00  6.5560000948607922e-03 4.6930001117289066e-03 0.0000000000000000e+00  8.2759996876120567e-03 5.4219998419284821e-03 0.0000000000000000e+00  6.9969999603927135e-03 -8.1580001860857010e-03 0.0000000000000000e+00  4.4249999336898327e-03 -9.0910000726580620e-03 0.0000000000000000e+00  5.8699999935925007e-03 -6.5609999001026154e-03 0.0000000000000000e+00  5.2840001881122589e-03 -6.6370000131428242e-03 0.0000000000000000e+00  -1.1490999720990658e-02 -4.9793999642133713e-02 0.0000000000000000e+00  7.5550000183284283e-03 -2.5686999782919884e-02 0.0000000000000000e+00  7.5550000183284283e-03 -2.5686999782919884e-02 0.0000000000000000e+00  -1.4319999609142542e-03 -5.5458001792430878e-02 0.0000000000000000e+00  -3.1169999856501818e-03 -5.0581999123096466e-02 0.0000000000000000e+00  -3.0090000946074724e-03 -5.0361000001430511e-02 0.0000000000000000e+00  9.0659996494650841e-03 -2.4932000786066055e-02 0.0000000000000000e+00  -3.3861998468637466e-02 -7.8730002045631409e-02 0.0000000000000000e+00  -3.3358000218868256e-02 -7.6961003243923187e-02 0.0000000000000000e+00  -3.3574998378753662e-02 -7.7413000166416168e-02 0.0000000000000000e+00  -2.5580000132322311e-02 -6.4970001578330994e-02 0.0000000000000000e+00  -2.7630999684333801e-02 -6.8159997463226318e-02 0.0000000000000000e+00  -2.6605000719428062e-02 -6.4851000905036926e-02 0.0000000000000000e+00  -2.6085000485181808e-02 -6.8553999066352844e-02 0.0000000000000000e+00  3.2689999788999557e-03 2.2760001011192799e-03 0.0000000000000000e+00  5.7660001330077648e-03 4.0239999070763588e-03 0.0000000000000000e+00  6.1510000377893448e-03 4.3640001676976681e-03 0.0000000000000000e+00  5.5309999734163284e-03 3.8600000552833080e-03 0.0000000000000000e+00  3.4340000711381435e-03 2.4359999224543571e-03 0.0000000000000000e+00  8.9260004460811615e-03 6.1079999431967735e-03 0.0000000000000000e+00  8.6719999089837074e-03 5.8740000240504742e-03 0.0000000000000000e+00  1.2230000458657742e-02 7.9659996554255486e-03 0.0000000000000000e+00  1.1640000157058239e-02 7.5849997811019421e-03 0.0000000000000000e+00  2.9130000621080399e-03 1.9590000156313181e-03 0.0000000000000000e+00  5.2729998715221882e-03 -4.9029998481273651e-03 0.0000000000000000e+00  4.5329998247325420e-03 -4.5329998247325420e-03 0.0000000000000000e+00  4.2949998751282692e-03 -4.0569999255239964e-03 0.0000000000000000e+00  3.6279999185353518e-03 2.6279999874532223e-03 0.0000000000000000e+00  3.3980000298470259e-03 2.4009998887777328e-03 0.0000000000000000e+00  1.3276999816298485e-02 6.6160000860691071e-03 0.0000000000000000e+00  9.6159996464848518e-03 5.0039999186992645e-03 0.0000000000000000e+00  1.1385999619960785e-02 5.1079997792840004e-03 0.0000000000000000e+00  1.1780000291764736e-02 6.5830000676214695e-03 0.0000000000000000e+00  9.7279995679855347e-03 5.9489998966455460e-03 0.0000000000000000e+00  1.3439999893307686e-02 7.8870002180337906e-03 0.0000000000000000e+00  4.9943998456001282e-02 7.6186999678611755e-02 0.0000000000000000e+00  4.8262998461723328e-02 7.6930999755859375e-02 0.0000000000000000e+00  -1.7580000683665276e-02 -1.4391000382602215e-02 0.0000000000000000e+00  5.6488998234272003e-02 9.1493003070354462e-02 0.0000000000000000e+00  5.2096001803874969e-02 7.8836001455783844e-02 0.0000000000000000e+00  6.0525998473167419e-02 9.9772997200489044e-02 0.0000000000000000e+00  -2.2427000105381012e-02 1.2870199978351593e-01 0.0000000000000000e+00  -1.6109999269247055e-02 1.3923700153827667e-01 0.0000000000000000e+00  -1.0831000283360481e-02 1.4185999333858490e-01 0.0000000000000000e+00  -3.2804001122713089e-02 1.1637400090694427e-01 0.0000000000000000e+00  -2.5622999295592308e-02 1.2877599895000458e-01 0.0000000000000000e+00  -6.0483999550342560e-02 -8.4482997655868530e-02 0.0000000000000000e+00  -6.4521998167037964e-02 -8.4365002810955048e-02 0.0000000000000000e+00  -6.5935000777244568e-02 -8.2463003695011139e-02 0.0000000000000000e+00  -7.0508003234863281e-02 -8.2415997982025146e-02 0.0000000000000000e+00  -3.0083000659942627e-02 -5.2882000803947449e-02 0.0000000000000000e+00  -2.9394000768661499e-02 -5.2979998290538788e-02 0.0000000000000000e+00  -3.0697999522089958e-02 -5.6519001722335815e-02 0.0000000000000000e+00  4.9100001342594624e-04 -3.2997000962495804e-02 0.0000000000000000e+00  -3.2494999468326569e-02 -4.4066999107599258e-02 0.0000000000000000e+00  -4.5839999802410603e-03 -3.4517999738454819e-02 0.0000000000000000e+00  -3.7760001141577959e-03 -3.4249000251293182e-02 0.0000000000000000e+00  -4.3558001518249512e-02 -8.1876002252101898e-02 0.0000000000000000e+00  -4.6020999550819397e-02 -8.3472996950149536e-02 0.0000000000000000e+00  -4.7421999275684357e-02 -8.1040002405643463e-02 0.0000000000000000e+00  -4.1207000613212585e-02 -7.9603999853134155e-02 0.0000000000000000e+00  -3.9838001132011414e-02 -8.2231000065803528e-02 0.0000000000000000e+00  -3.8001999258995056e-02 -8.0018997192382812e-02 0.0000000000000000e+00  -3.9236001670360565e-02 -6.6228002309799194e-02 0.0000000000000000e+00  -3.8013000041246414e-02 -6.2125001102685928e-02 0.0000000000000000e+00  -3.6479998379945755e-02 -6.3196003437042236e-02 0.0000000000000000e+00  -3.9723999798297882e-02 -7.4018001556396484e-02 0.0000000000000000e+00  -3.7429999560117722e-02 -7.0969998836517334e-02 0.0000000000000000e+00  -3.6928001791238785e-02 -7.4477002024650574e-02 0.0000000000000000e+00  -1.7054999247193336e-02 5.9264998883008957e-02 0.0000000000000000e+00  -1.1509000323712826e-02 7.0826001465320587e-02 0.0000000000000000e+00  -2.5112999603152275e-02 5.8956000953912735e-02 0.0000000000000000e+00  1.0533399879932404e-01 1.0095699876546860e-01 0.0000000000000000e+00  1.0872399806976318e-01 1.0819800198078156e-01 0.0000000000000000e+00  1.1138900369405746e-01 1.0923500359058380e-01 0.0000000000000000e+00  1.5109999803826213e-03 -2.2670000325888395e-03 0.0000000000000000e+00  1.2809999752789736e-03 -2.2670000325888395e-03 0.0000000000000000e+00  1.7529999604448676e-03 -2.2670000325888395e-03 0.0000000000000000e+00  2.0049999002367258e-03 -2.2670000325888395e-03 0.0000000000000000e+00  2.2670000325888395e-03 -2.2670000325888395e-03 0.0000000000000000e+00  3.7440001033246517e-03 -7.2000001091510057e-04 0.0000000000000000e+00  2.2670000325888395e-03 -2.2670000325888395e-03 0.0000000000000000e+00  4.0409998036921024e-03 -1.3970000436529517e-03 0.0000000000000000e+00  5.8149998076260090e-03 -1.2019999558106065e-03 0.0000000000000000e+00  4.5989998616278172e-03 -2.4649999104440212e-03 0.0000000000000000e+00  1.6651999205350876e-02 2.7089999057352543e-03 0.0000000000000000e+00  1.2501000426709652e-02 1.6560000367462635e-03 0.0000000000000000e+00  1.2873999774456024e-02 7.5000003562308848e-05 0.0000000000000000e+00  9.2519996687769890e-03 -2.4049999192357063e-03 0.0000000000000000e+00  1.2462000362575054e-02 -2.2179998923093081e-03 0.0000000000000000e+00  8.9779999107122421e-03 -7.2100001852959394e-04 0.0000000000000000e+00  1.6486000269651413e-02 4.3950001709163189e-03 0.0000000000000000e+00  1.2279000133275986e-02 4.4920002110302448e-03 0.0000000000000000e+00  1.4832000248134136e-02 6.3689998351037502e-03 0.0000000000000000e+00  1.5959000214934349e-02 5.6690000928938389e-03 0.0000000000000000e+00  6.9149998016655445e-03 -7.5500002130866051e-03 0.0000000000000000e+00  4.6730998903512955e-02 2.0269999280571938e-02 0.0000000000000000e+00  4.4052999466657639e-02 1.8357999622821808e-02 0.0000000000000000e+00  4.6631000936031342e-02 2.0292000845074654e-02 0.0000000000000000e+00  5.5263999849557877e-02 2.3657999932765961e-02 0.0000000000000000e+00  6.1011999845504761e-02 2.5497000664472580e-02 0.0000000000000000e+00  5.3927998989820480e-02 2.4978000670671463e-02 0.0000000000000000e+00  5.6239999830722809e-03 -9.9809998646378517e-03 0.0000000000000000e+00  -3.9750002324581146e-03 -1.4898999594151974e-02 0.0000000000000000e+00  -1.5799999528098851e-04 -1.4077000319957733e-02 0.0000000000000000e+00  2.1240001078695059e-03 -1.3420999981462955e-02 0.0000000000000000e+00  1.0310000507161021e-03 -2.2670000325888395e-03 0.0000000000000000e+00  7.5599999399855733e-04 -2.2670000325888395e-03 0.0000000000000000e+00  2.7027999982237816e-02 3.7337999790906906e-02 0.0000000000000000e+00  1.7970999702811241e-02 2.0950999110937119e-02 0.0000000000000000e+00  2.4174999445676804e-02 3.0472999438643456e-02 0.0000000000000000e+00  3.3551000058650970e-02 4.8365000635385513e-02 0.0000000000000000e+00  1.1757999658584595e-02 1.4567400515079498e-01 0.0000000000000000e+00  1.8859000876545906e-02 1.5509599447250366e-01 0.0000000000000000e+00  -8.2800001837313175e-04 1.5408900380134583e-01 0.0000000000000000e+00  3.1895000487565994e-02 2.9920000582933426e-02 0.0000000000000000e+00  -6.2440000474452972e-03 -1.4910000376403332e-02 0.0000000000000000e+00  -5.7540000416338444e-03 -1.5401000156998634e-02 0.0000000000000000e+00  3.7907999008893967e-02 5.0319999456405640e-02 0.0000000000000000e+00  -3.0219999607652426e-03 -1.6885999590158463e-02 0.0000000000000000e+00  -3.0219999607652426e-03 -1.7122000455856323e-02 0.0000000000000000e+00  5.5045001208782196e-02 8.8868997991085052e-02 0.0000000000000000e+00  6.6224001348018646e-02 9.9412001669406891e-02 0.0000000000000000e+00  5.8327998965978622e-02 8.3801999688148499e-02 0.0000000000000000e+00  6.0373000800609589e-02 7.9857997596263885e-02 0.0000000000000000e+00  4.7899000346660614e-02 6.7754000425338745e-02 0.0000000000000000e+00  7.0093996822834015e-02 9.5078997313976288e-02 0.0000000000000000e+00  7.7117003500461578e-02 1.0925500094890594e-01 0.0000000000000000e+00  7.3080003261566162e-02 9.1737002134323120e-02 0.0000000000000000e+00  7.6200999319553375e-02 8.8914997875690460e-02 0.0000000000000000e+00  8.4999002516269684e-02 1.0201600193977356e-01 0.0000000000000000e+00  8.8472999632358551e-02 9.9068999290466309e-02 0.0000000000000000e+00  5.6400999426841736e-02 9.7121000289916992e-02 0.0000000000000000e+00  6.3683003187179565e-02 1.1817400157451630e-01 0.0000000000000000e+00  5.7610001415014267e-02 1.0310400277376175e-01 0.0000000000000000e+00  6.4978003501892090e-02 1.2408799678087234e-01 0.0000000000000000e+00  -5.0019999034702778e-03 -1.7450000159442425e-03 0.0000000000000000e+00  -5.5060000158846378e-03 -1.9980000797659159e-03 0.0000000000000000e+00  -1.1508000083267689e-02 -7.4049998074769974e-03 0.0000000000000000e+00  -1.1412000283598900e-02 -7.2039999067783356e-03 0.0000000000000000e+00  9.5835998654365540e-02 1.1077500134706497e-01 0.0000000000000000e+00  1.2245900183916092e-01 1.4066800475120544e-01 0.0000000000000000e+00  1.2056899815797806e-01 1.4560599625110626e-01 0.0000000000000000e+00  1.2655200064182281e-01 1.4178299903869629e-01 0.0000000000000000e+00  1.1661999672651291e-01 1.4474999904632568e-01 0.0000000000000000e+00  6.9557003676891327e-02 1.1488900333642960e-01 0.0000000000000000e+00  3.3452998846769333e-02 1.9433999434113503e-02 0.0000000000000000e+00  3.8196999579668045e-02 2.2123999893665314e-02 0.0000000000000000e+00  2.2314000874757767e-02 1.3976999558508396e-02 0.0000000000000000e+00  1.6315400600433350e-01 8.6951002478599548e-02 0.0000000000000000e+00  1.6900199651718140e-01 8.7157003581523895e-02 0.0000000000000000e+00  1.5725199878215790e-01 8.0848000943660736e-02 0.0000000000000000e+00  1.6349600255489349e-01 8.1068001687526703e-02 0.0000000000000000e+00  1.7423099279403687e-01 8.6291000247001648e-02 0.0000000000000000e+00  1.5574200451374054e-01 7.4849002063274384e-02 0.0000000000000000e+00  1.4922499656677246e-01 7.4423998594284058e-02 0.0000000000000000e+00  1.7416599392890930e-01 9.2666000127792358e-02 0.0000000000000000e+00  8.8099995627999306e-03 -2.5187000632286072e-02 0.0000000000000000e+00  -3.7769998889416456e-03 -5.1389001309871674e-02 0.0000000000000000e+00  8.5770003497600555e-03 -2.5420999154448509e-02 0.0000000000000000e+00  -1.8380000256001949e-03 -5.6428998708724976e-02 0.0000000000000000e+00  -2.8919999022036791e-03 -5.7746000587940216e-02 0.0000000000000000e+00  -2.6010000146925449e-03 -6.4310997724533081e-02 0.0000000000000000e+00  -5.7689999230206013e-03 -6.0453999787569046e-02 0.0000000000000000e+00  -4.1599999531172216e-04 -6.9375000894069672e-02 0.0000000000000000e+00  -2.7499999850988388e-03 -7.0733003318309784e-02 0.0000000000000000e+00  -5.9150001034140587e-03 -6.6416002810001373e-02 0.0000000000000000e+00  9.8569998517632484e-03 -2.4932000786066055e-02 0.0000000000000000e+00  -2.7750000357627869e-02 -6.4926996827125549e-02 0.0000000000000000e+00  -2.5880999863147736e-02 -6.1631001532077789e-02 0.0000000000000000e+00  -2.7512999251484871e-02 -5.7511001825332642e-02 0.0000000000000000e+00  -2.6613000780344009e-02 -5.3791999816894531e-02 0.0000000000000000e+00  -2.6313999667763710e-02 -5.6735001504421234e-02 0.0000000000000000e+00  -2.5335000827908516e-02 -5.3121000528335571e-02 0.0000000000000000e+00  -2.5840999558568001e-02 -5.6012000888586044e-02 0.0000000000000000e+00  -2.9913000762462616e-02 -5.7491999119520187e-02 0.0000000000000000e+00  -3.1514000147581100e-02 -6.0883000493049622e-02 0.0000000000000000e+00  -3.2765999436378479e-02 -6.0196001082658768e-02 0.0000000000000000e+00  -3.3273998647928238e-02 -7.6052002608776093e-02 0.0000000000000000e+00  -3.1001999974250793e-02 -7.0767000317573547e-02 0.0000000000000000e+00  -2.8772000223398209e-02 -6.5762996673583984e-02 0.0000000000000000e+00  -3.0753999948501587e-02 -6.9202996790409088e-02 0.0000000000000000e+00  -3.0764000490307808e-02 -6.8759001791477203e-02 0.0000000000000000e+00  -2.8783999383449554e-02 -6.5229997038841248e-02 0.0000000000000000e+00  -2.8767000883817673e-02 -8.1895001232624054e-02 0.0000000000000000e+00  -2.6994999498128891e-02 -8.3929002285003662e-02 0.0000000000000000e+00  -2.8176000341773033e-02 -8.3223000168800354e-02 0.0000000000000000e+00  -2.8457999229431152e-02 -8.0434001982212067e-02 0.0000000000000000e+00  -2.6590999215841293e-02 -8.3412997424602509e-02 0.0000000000000000e+00  -2.8044000267982483e-02 -7.1315996348857880e-02 0.0000000000000000e+00  -2.8472000733017921e-02 -7.4427001178264618e-02 0.0000000000000000e+00  -2.6522999629378319e-02 -7.1970999240875244e-02 0.0000000000000000e+00  -2.4390000849962234e-02 -6.8723998963832855e-02 0.0000000000000000e+00  -8.0099999904632568e-03 -6.1769001185894012e-02 0.0000000000000000e+00  -9.6669998019933701e-03 -5.3794998675584793e-02 0.0000000000000000e+00  -1.2012000195682049e-02 -5.4919000715017319e-02 0.0000000000000000e+00  5.6650000624358654e-03 -5.0989999435842037e-03 0.0000000000000000e+00  6.0439999215304852e-03 -5.2889999933540821e-03 0.0000000000000000e+00  6.5720002166926861e-03 -5.6409998796880245e-03 0.0000000000000000e+00  7.1410001255571842e-03 -6.0200002044439316e-03 0.0000000000000000e+00  2.7040001004934311e-03 1.8050000071525574e-03 0.0000000000000000e+00  9.6420003101229668e-03 6.6260001622140408e-03 0.0000000000000000e+00  1.2598999775946140e-02 8.1850001588463783e-03 0.0000000000000000e+00  6.1039999127388000e-03 4.3089999817311764e-03 0.0000000000000000e+00  4.8919999971985817e-03 -4.7129997983574867e-03 0.0000000000000000e+00  2.2670000325888395e-03 -2.7830000035464764e-03 0.0000000000000000e+00  3.0219999607652426e-03 1.3699999544769526e-03 0.0000000000000000e+00  2.2670000325888395e-03 -3.0219999607652426e-03 0.0000000000000000e+00  2.2670000325888395e-03 -2.5380000006407499e-03 0.0000000000000000e+00  1.1562000028789043e-02 7.3090000078082085e-03 0.0000000000000000e+00  1.5471000224351883e-02 8.2790004089474678e-03 0.0000000000000000e+00  1.9311999902129173e-02 9.8670003935694695e-03 0.0000000000000000e+00  1.7167000100016594e-02 9.6199996769428253e-03 0.0000000000000000e+00  4.3083999305963516e-02 1.7906000837683678e-02 0.0000000000000000e+00  4.4844001531600952e-02 1.8740000203251839e-02 0.0000000000000000e+00  4.0663000196218491e-02 1.6209000721573830e-02 0.0000000000000000e+00  1.6696000471711159e-02 7.1200000820681453e-04 0.0000000000000000e+00  2.5390999391674995e-02 3.0449999030679464e-03 0.0000000000000000e+00  2.9270999133586884e-02 5.0169997848570347e-03 0.0000000000000000e+00  2.9482999816536903e-02 6.2489998526871204e-03 0.0000000000000000e+00  2.4284999817609787e-02 1.3200000394135714e-03 0.0000000000000000e+00  2.0388999953866005e-02 -5.2100000903010368e-04 0.0000000000000000e+00  3.2494999468326569e-02 7.6979999430477619e-03 0.0000000000000000e+00  3.5792998969554901e-02 1.1319999583065510e-02 0.0000000000000000e+00  3.6972999572753906e-02 1.1210000142455101e-02 0.0000000000000000e+00  2.9864000156521797e-02 3.7514999508857727e-02 0.0000000000000000e+00  2.3506000638008118e-02 2.5051999837160110e-02 0.0000000000000000e+00  3.2970000058412552e-02 4.0748998522758484e-02 0.0000000000000000e+00  5.6104999035596848e-02 1.0208299756050110e-01 0.0000000000000000e+00  5.2662000060081482e-02 9.3681998550891876e-02 0.0000000000000000e+00  6.1234001070261002e-02 1.1491200327873230e-01 0.0000000000000000e+00  9.8094999790191650e-02 1.7802600562572479e-01 0.0000000000000000e+00  1.0428699851036072e-01 1.9290700554847717e-01 0.0000000000000000e+00  1.0069099813699722e-01 1.8261100351810455e-01 0.0000000000000000e+00  -1.6620999202132225e-02 -1.5110000036656857e-02 0.0000000000000000e+00  7.2281002998352051e-02 1.3756200671195984e-01 0.0000000000000000e+00  7.5827002525329590e-02 1.5444600582122803e-01 0.0000000000000000e+00  7.4276000261306763e-02 1.4829599857330322e-01 0.0000000000000000e+00  7.0398002862930298e-02 1.3186700642108917e-01 0.0000000000000000e+00  6.9677002727985382e-02 1.2618599832057953e-01 0.0000000000000000e+00  6.5348997712135315e-02 1.1329899728298187e-01 0.0000000000000000e+00  7.2116002440452576e-02 1.4541900157928467e-01 0.0000000000000000e+00  6.6913999617099762e-02 1.3019700348377228e-01 0.0000000000000000e+00  7.4322998523712158e-02 1.5085700154304504e-01 0.0000000000000000e+00  6.9366998970508575e-02 1.3595899939537048e-01 0.0000000000000000e+00  5.6233000010251999e-02 9.3489997088909149e-02 0.0000000000000000e+00  6.3339002430438995e-02 1.1099799722433090e-01 0.0000000000000000e+00  6.8406000733375549e-02 1.2763600051403046e-01 0.0000000000000000e+00  7.3256000876426697e-02 1.4561100304126740e-01 0.0000000000000000e+00  7.7211998403072357e-02 1.6306500136852264e-01 0.0000000000000000e+00  7.4151001870632172e-02 1.5116499364376068e-01 0.0000000000000000e+00  6.2533996999263763e-02 1.1202000081539154e-01 0.0000000000000000e+00  -5.3330000489950180e-02 9.0461000800132751e-02 0.0000000000000000e+00  -6.2066998332738876e-02 7.8576996922492981e-02 0.0000000000000000e+00  -5.8465000241994858e-02 8.7302997708320618e-02 0.0000000000000000e+00  -3.3558998256921768e-02 1.2239500135183334e-01 0.0000000000000000e+00  -3.5448998212814331e-02 1.1576700210571289e-01 0.0000000000000000e+00  -4.2307000607252121e-02 1.0866799950599670e-01 0.0000000000000000e+00  -4.3457999825477600e-02 1.0314500331878662e-01 0.0000000000000000e+00  -5.3447000682353973e-02 -8.3581998944282532e-02 0.0000000000000000e+00  -5.4552998393774033e-02 -8.0760002136230469e-02 0.0000000000000000e+00  -5.0305001437664032e-02 -8.2332000136375427e-02 0.0000000000000000e+00  -4.8587001860141754e-02 -8.4661997854709625e-02 0.0000000000000000e+00  -5.7895001024007797e-02 -8.5785999894142151e-02 0.0000000000000000e+00  -9.1071002185344696e-02 -7.0915997028350830e-02 0.0000000000000000e+00  -8.5458002984523773e-02 -7.4335999786853790e-02 0.0000000000000000e+00  -9.1899998486042023e-02 -6.8434998393058777e-02 