<?xml version="1.0"?>
<VTKFile type="UnstructuredGrid"  version="0.1"  >
<UnstructuredGrid>
<Piece  NumberOfPoints="6340" NumberOfCells="12376">
<Points>
<DataArray  type="Float64"  NumberOfComponents="3"  format="ascii">-0.01942699961364269 0.02081100083887577 0  -0.02005299925804138 0.02145599946379662 0  -0.02029000036418438 0.02047999948263168 0  -0.02078899927437305 0.0211970005184412 0  -0.01966699957847595 0.01989500038325787 0  -0.01925599947571754 0.02168300002813339 0  -0.01970599964261055 0.02240700088441372 0  -0.0192479994148016 0.02322299964725971 0  -0.0201249998062849 0.02312799915671349 0  -0.01880699954926968 0.02240700088441372 0  -0.009111000224947929 0.01768800057470798 0  -0.009708999656140804 0.01859699934720993 0  -0.01004400011152029 0.0176599994301796 0  -0.01064800005406141 0.01861000061035156 0  -0.0244549997150898 0.07331400364637375 0  -0.02534699998795986 0.07366500049829483 0  -0.02551200054585934 0.07289399951696396 0  -0.02494800090789795 0.06694000214338303 0  -0.02554799988865852 0.06759800016880035 0  -0.02573500014841557 0.0667169988155365 0  -0.02644000016152859 0.0670899972319603 0  -0.01217699982225895 0.08525600284337997 0  -0.01303000003099442 0.08508999645709991 0  -0.01246399991214275 0.08447899669408798 0  -0.01879999972879887 0.07941599935293198 0  -0.01786299981176853 0.07962600141763687 0  -0.01836399920284748 0.08027499914169312 0  -0.01830600015819073 0.0787620022892952 0  -0.02167399972677231 0.02448200061917305 0  -0.02085400000214577 0.02463899925351143 0  -0.02119000069797039 0.02536699920892715 0  -0.02148599922657013 0.02610599994659424 0  -0.02202500030398369 0.02521900087594986 0  -0.0203620009124279 0.02552999928593636 0  -0.02001399919390678 0.02474699914455414 0  -0.01916199922561646 0.0248390007764101 0  -0.01952400058507919 0.02562399953603745 0  -0.02133399993181229 0.02373499982059002 0  -0.02222900092601776 0.02362200058996677 0  -0.0217099990695715 0.02252000011503696 0  -0.0212629996240139 0.02187700010836124 0  -0.02097400091588497 0.02294700033962727 0  -0.02051199972629547 0.02220899984240532 0  -0.01632500067353249 0.02209600061178207 0  -0.0168249998241663 0.02122100070118904 0  -0.01589900068938732 0.02119000069797039 0  -0.01718099974095821 0.02222000062465668 0  -0.01803700067102909 0.0222219992429018 0  -0.01756099984049797 0.02310100011527538 0  0.04164300113916397 0.07763899862766266 0  0.04127699881792068 0.07682400196790695 0  0.04256099835038185 0.07693199813365936 0  0.04489799961447716 0.08743999898433685 0  0.0456870011985302 0.08767999708652496 0  0.04458099976181984 0.088189996778965 0  0.02677500061690807 0.09640000015497208 0  0.02695300057530403 0.0956289991736412 0  0.02786399982869625 0.09589800238609314 0  0.0257750004529953 0.09686200320720673 0  0.02594500035047531 0.09593000262975693 0  -0.006870999932289124 0.0933929979801178 0  -0.005985999945551157 0.09360600262880325 0  -0.006570000201463699 0.09420300275087357 0  -0.005677000153809786 0.09442000091075897 0  -0.01772299967706203 0.09262199699878693 0  -0.01803500019013882 0.09196499735116959 0  -0.01704699918627739 0.09221500158309937 0  -0.01862400025129318 0.09264499694108963 0  -0.014487000182271 0.09829200059175491 0  -0.01474499981850386 0.09901899844408035 0  -0.01525400020182133 0.09829500317573547 0  -0.01054800022393465 0.09192600101232529 0  -0.009701999835669994 0.09208600223064423 0  -0.01028299983590841 0.09268999844789505 0  -0.01139799971133471 0.09177199751138687 0  -0.01081600040197372 0.09116899967193604 0  -0.01166499964892864 0.09101700037717819 0  -0.01398599985986948 0.09338899701833725 0  -0.01452699955552816 0.09396900236606598 0  -0.01486899983137846 0.09322000294923782 0  -0.01283300016075373 0.09221599996089935 0  -0.01370100025087595 0.09206300228834152 0  -0.01310900039970875 0.09146899729967117 0  0.01196799986064434 0.09042499959468842 0  0.01302099972963333 0.09030900150537491 0  0.01240899972617626 0.09105700254440308 0  0.007818000391125679 0.07794400304555893 0  0.008267000317573547 0.07714799791574478 0  0.008870000019669533 0.07782699912786484 0  -0.008870000019669533 0.01676999963819981 0  -0.008112999610602856 0.01693199947476387 0  -0.00967899989336729 0.01670599915087223 0  -0.01052299980074167 0.01663899980485439 0  -0.01391000021249056 0.01679999940097332 0  -0.01410400029271841 0.01791499927639961 0  -0.01469600014388561 0.01703899912536144 0  -0.01335300039499998 0.0176829993724823 0  -0.01334199961274862 0.01873300038278103 0  -0.01258600037544966 0.01781200058758259 0  -0.01280899997800589 0.0216860007494688 0  -0.01328799966722727 0.02074000053107738 0  -0.01242099981755018 0.02072999998927116 0  -0.01201799977570772 0.01982700079679489 0  -0.01147899962961674 0.02065300010144711 0  -0.01290199998766184 0.01974299922585487 0  -0.01368200033903122 0.02174999937415123 0  -0.01502600032836199 0.02103699930012226 0  -0.01542800012975931 0.02202199958264828 0  -0.01455600000917912 0.02188500016927719 0  -0.01013999991118908 0.01954199932515621 0  -0.01146300043910742 0.03077499940991402 0  -0.01195999979972839 0.02991800010204315 0  -0.01104800030589104 0.02981200069189072 0  -0.006442000158131123 0.02918699942529202 0  -0.006868000142276287 0.03017299994826317 0  -0.00736499996855855 0.02932400070130825 0  -0.00924300029873848 0.01954399980604649 0  -0.006972000002861023 0.018800999969244 0  -0.00787500012665987 0.01871000044047832 0  -0.007189999800175428 0.01795100048184395 0  -0.007294999901205301 0.01710600033402443 0  -0.006390000227838755 0.01730000041425228 0  0.04684200137853622 0.08396799862384796 0  0.04756800085306168 0.08345899730920792 0  0.04753699898719788 0.08448699861764908 0  0.04650599882006645 0.08470200002193451 0  0.01464799977838993 0.05778900161385536 0  0.01561299990862608 0.05757199972867966 0  0.01521500013768673 0.05850600078701973 0  0.02665900066494942 0.0414309985935688 0  0.02704500034451485 0.04034800082445145 0  0.02753500081598759 0.04099100083112717 0  0.02900700084865093 0.04520000144839287 0  0.02984100021421909 0.04442200064659119 0  0.03023600019514561 0.04509700089693069 0  0.02904600091278553 0.04858500137925148 0  0.02812300063669682 0.04878300055861473 0  0.02856599912047386 0.04780400171875954 0  0.02807299979031086 0.04707200080156326 0  0.02905100025236607 0.04682299867272377 0  0.02761399932205677 0.04803900048136711 0  0.02717900089919567 0.04900500178337097 0  0.02707899920642376 0.04733600094914436 0  0.0264929998666048 0.04666699841618538 0  0.0260819997638464 0.04758900031447411 0  0.02548700012266636 0.04691199958324432 0  0.0442890003323555 0.08618299663066864 0  0.04319699853658676 0.08630599826574326 0  0.04382200166583061 0.08556800335645676 0  0.04275399819016457 0.08566199988126755 0  0.005657999776303768 0.0228860005736351 0  0.006366000045090914 0.0233330000191927 0  0.00570600014179945 0.02398600056767464 0  0.006471999920904636 0.02432199940085411 0  0.02508600056171417 0.04783400148153305 0  0.02132900059223175 0.05038399994373322 0  0.02092899940907955 0.05131300166249275 0  0.02034999988973141 0.05060900002717972 0  0.0219080001115799 0.05108699947595596 0  0.02771699987351894 0.04975000023841858 0  0.01615099981427193 0.03389900177717209 0  0.01532499957829714 0.03379499912261963 0  0.01567599922418594 0.0328649990260601 0  0.01126999966800213 0.03946400061249733 0  0.01039899978786707 0.03948900103569031 0  0.01079399976879358 0.03856299817562103 0  0.009921999648213387 0.0385890007019043 0  0.00952799990773201 0.03951400145888329 0  0.009446999989449978 0.03768600150942802 0  0.0103169996291399 0.03766399994492531 0  0.01087599992752075 0.04039100185036659 0  -0.02632799930870533 0.06793300062417984 0  -0.02528100088238716 0.06842099875211716 0  -0.02622600086033344 0.06870300322771072 0  -0.02462800033390522 0.06783799827098846 0  -0.02426500059664249 0.06868000328540802 0  -0.02328000031411648 0.06893599778413773 0  -0.02374299988150597 0.06958600133657455 0  -0.02272400073707104 0.06831199675798416 0  -0.02231400087475777 0.06917499750852585 0  -0.02281400002539158 0.06981900334358215 0  -0.02651700004935265 0.06622099876403809 0  -0.01793400011956692 0.08112200349569321 0  -0.01886199973523617 0.08092000335454941 0  -0.01786299981176853 0.08917500078678131 0  -0.01872400008141994 0.08904699981212616 0  -0.01814999990165234 0.08843100070953369 0  -0.0190069992095232 0.08830700069665909 0  -0.018435999751091 0.08767999708652496 0  -0.01714600063860416 0.09151300042867661 0  -0.01632099971175194 0.09165000170469284 0  -0.01612400077283382 0.09236700087785721 0  -0.01332399994134903 0.08430299907922745 0  -0.01076599955558777 0.07893399894237518 0  -0.009832999669015408 0.07914400100708008 0  -0.01034600008279085 0.07978499680757523 0  -0.009970000013709068 0.08061599731445312 0  -0.009438999928534031 0.07998300343751907 0  -0.01453199982643127 0.07651799917221069 0  -0.01500799972563982 0.07562399655580521 0  -0.01406200043857098 0.07584500312805176 0  -0.01311600022017956 0.07606600224971771 0  -0.01358400005847216 0.0751739963889122 0  -0.01736499927937984 0.07897599786520004 0  -0.01688900031149387 0.07831099629402161 0  -0.01783699914813042 0.07809200137853622 0  -0.01878700032830238 0.07787500321865082 0  -0.02334400080144405 0.07046400010585785 0  -0.02386900037527084 0.07267700135707855 0  -0.02346399985253811 0.07354699820280075 0  -0.02250399999320507 0.02420499920845032 0  -0.02277000062167645 0.02476999908685684 0  -0.02294900082051754 0.02532500028610229 0  -0.02314300090074539 0.02592200040817261 0  -0.02228900045156479 0.02598999999463558 0  -0.01964299939572811 0.02397900074720383 0  -0.01878399960696697 0.02406099997460842 0  -0.02050700038671494 0.02386699989438057 0  -0.02196200005710125 0.02305500023066998 0  -0.01779299974441528 0.01838400028645992 0  -0.01741999946534634 0.01914500072598457 0  -0.01847999915480614 0.01878000050783157 0  -0.0170889999717474 0.01797899976372719 0  -0.01837299950420856 0.02320699952542782 0  -0.0
[...]
<PointData  Vectors="velocity"> 
<DataArray  type="Float64"  Name="velocity"  NumberOfComponents="3" format="ascii">5.0229998305439949e-03 -7.6800002716481686e-04 0.0000000000000000e+00  4.6310001052916050e-03 -4.6400001156143844e-04 0.0000000000000000e+00  7.5599999399855733e-04 1.5109999803826213e-03 0.0000000000000000e+00  1.5519999433308840e-03 9.8000001162290573e-04 0.0000000000000000e+00  2.3499999952036887e-04 1.5109999803826213e-03 0.0000000000000000e+00  8.1369997933506966e-03 1.5199999324977398e-04 0.0000000000000000e+00  8.4349997341632843e-03 8.1900000805035233e-04 0.0000000000000000e+00  1.2093000113964081e-02 1.8019999843090773e-03 0.0000000000000000e+00  8.6430003866553307e-03 1.4390000142157078e-03 0.0000000000000000e+00  1.1816999875009060e-02 9.2999998014420271e-04 0.0000000000000000e+00  2.0020000636577606e-02 -1.4887000434100628e-02 0.0000000000000000e+00  1.2705000117421150e-02 -1.8685000017285347e-02 0.0000000000000000e+00  2.1515000611543655e-02 -1.3763000257313251e-02 0.0000000000000000e+00  1.5758000314235687e-02 -1.6788000240921974e-02 0.0000000000000000e+00  -2.0975999534130096e-02 -7.9333998262882233e-02 0.0000000000000000e+00  1.0088000446557999e-02 -2.9953999444842339e-02 0.0000000000000000e+00  1.0323000140488148e-02 -2.9719000682234764e-02 0.0000000000000000e+00  -1.1510999873280525e-02 -9.2445999383926392e-02 0.0000000000000000e+00  -1.2931000441312790e-02 -8.4573999047279358e-02 0.0000000000000000e+00  -1.1160999536514282e-02 -8.3677999675273895e-02 0.0000000000000000e+00  1.2087999843060970e-02 -2.7197999879717827e-02 0.0000000000000000e+00  -8.3364002406597137e-02 -1.2767499685287476e-01 0.0000000000000000e+00  -7.8207999467849731e-02 -1.2427199631929398e-01 0.0000000000000000e+00  -7.9351000487804413e-02 -1.3030099868774414e-01 0.0000000000000000e+00  -4.0913999080657959e-02 -1.0890399664640427e-01 0.0000000000000000e+00  -4.4697001576423645e-02 -1.1615499854087830e-01 0.0000000000000000e+00  -4.3028999119997025e-02 -1.0918200016021729e-01 0.0000000000000000e+00  -4.2954001575708389e-02 -1.1603599786758423e-01 0.0000000000000000e+00  3.8179999683052301e-03 -3.0099999275989830e-04 0.0000000000000000e+00  6.7859999835491180e-03 6.8100000498816371e-04 0.0000000000000000e+00  6.4779999665915966e-03 9.2199997743591666e-04 0.0000000000000000e+00  6.0089998878538609e-03 1.0280000278726220e-03 0.0000000000000000e+00  3.8320000749081373e-03 7.8999997640494257e-05 0.0000000000000000e+00  9.3099996447563171e-03 1.6090000281110406e-03 0.0000000000000000e+00  1.0518999770283699e-02 1.8830000190064311e-03 0.0000000000000000e+00  1.4781000092625618e-02 3.0890000052750111e-03 0.0000000000000000e+00  1.2508999556303024e-02 2.2619999945163727e-03 0.0000000000000000e+00  4.1660000570118427e-03 -2.4300000222865492e-04 0.0000000000000000e+00  4.1319997981190681e-03 -1.1099999537691474e-03 0.0000000000000000e+00  3.0219999607652426e-03 0.0000000000000000e+00 0.0000000000000000e+00  2.3080001119524240e-03 4.7599998652003706e-04 0.0000000000000000e+00  5.1020001992583275e-03 4.7200001426972449e-04 0.0000000000000000e+00  5.0110002048313618e-03 7.2000002546701580e-05 0.0000000000000000e+00  1.9350999966263771e-02 -1.5920000150799751e-03 0.0000000000000000e+00  1.5451000072062016e-02 -1.8830000190064311e-03 0.0000000000000000e+00  1.7869999632239342e-02 -3.5449999850243330e-03 0.0000000000000000e+00  1.7106000334024429e-02 -3.0300000798888505e-04 0.0000000000000000e+00  1.4154000207781792e-02 4.3200000072829425e-04 0.0000000000000000e+00  1.7957000061869621e-02 1.0870000114664435e-03 0.0000000000000000e+00  6.2169998884201050e-02 8.9199997484683990e-02 0.0000000000000000e+00  6.0607999563217163e-02 9.1816000640392303e-02 0.0000000000000000e+00  -8.2740001380443573e-03 -3.7774998694658279e-02 0.0000000000000000e+00  6.7838996648788452e-02 8.6620002985000610e-02 0.0000000000000000e+00  6.3539996743202209e-02 7.7601999044418335e-02 0.0000000000000000e+00  6.9421999156475067e-02 9.2367999255657196e-02 0.0000000000000000e+00  -5.8297000825405121e-02 1.1685600131750107e-01 0.0000000000000000e+00  -5.1856998354196548e-02 1.2855699658393860e-01 0.0000000000000000e+00  -4.5586999505758286e-02 1.2686699628829956e-01 0.0000000000000000e+00  -6.9500997662544250e-02 1.0727600008249283e-01 0.0000000000000000e+00  -6.3228003680706024e-02 1.2143900245428085e-01 0.0000000000000000e+00  -1.0910499840974808e-01 -9.6739999949932098e-02 0.0000000000000000e+00  -1.1501599848270416e-01 -9.8722003400325775e-02 0.0000000000000000e+00  -1.0494499653577805e-01 -9.1603003442287445e-02 0.0000000000000000e+00  -1.0964199900627136e-01 -9.2891000211238861e-02 0.0000000000000000e+00  -2.8249999508261681e-02 -3.6111000925302505e-02 0.0000000000000000e+00  -2.9334999620914459e-02 -3.8740001618862152e-02 0.0000000000000000e+00  -3.4315001219511032e-02 -4.1825998574495316e-02 0.0000000000000000e+00  1.3845000416040421e-02 -3.6527998745441437e-02 0.0000000000000000e+00  -2.2182000800967216e-02 -2.1986000239849091e-02 0.0000000000000000e+00  -6.2200002139434218e-04 -4.2358998209238052e-02 0.0000000000000000e+00  1.2629999546334147e-03 -4.1551001369953156e-02 0.0000000000000000e+00  -8.6511999368667603e-02 -8.7554998695850372e-02 0.0000000000000000e+00  -9.2620998620986938e-02 -9.1689996421337128e-02 0.0000000000000000e+00  -8.5045002400875092e-02 -8.2837998867034912e-02 0.0000000000000000e+00  -8.0029003322124481e-02 -8.2958996295928955e-02 0.0000000000000000e+00  -9.1063998639583588e-02 -9.2563003301620483e-02 0.0000000000000000e+00  -8.4884002804756165e-02 -8.8059999048709869e-02 0.0000000000000000e+00  -4.9380000680685043e-02 -5.1525998860597610e-02 0.0000000000000000e+00  -3.9034001529216766e-02 -4.3462000787258148e-02 0.0000000000000000e+00  -4.3756000697612762e-02 -4.7040000557899475e-02 0.0000000000000000e+00  -6.5995998680591583e-02 -6.8884000182151794e-02 0.0000000000000000e+00  -5.9567000716924667e-02 -6.4162001013755798e-02 0.0000000000000000e+00  -6.7001000046730042e-02 -7.3334999382495880e-02 0.0000000000000000e+00  -8.7457001209259033e-02 8.2240998744964600e-02 0.0000000000000000e+00  -7.8887999057769775e-02 9.7301997244358063e-02 0.0000000000000000e+00  -9.7240999341011047e-02 8.3608001470565796e-02 0.0000000000000000e+00  4.0598999708890915e-02 1.1450599879026413e-01 0.0000000000000000e+00  4.2445998638868332e-02 1.2407500296831131e-01 0.0000000000000000e+00  4.8131998628377914e-02 1.2706099450588226e-01 0.0000000000000000e+00  -1.5109999803826213e-03 7.5599999399855733e-04 0.0000000000000000e+00  -1.2809999752789736e-03 5.2499998128041625e-04 0.0000000000000000e+00  -1.5109999803826213e-03 7.5599999399855733e-04 0.0000000000000000e+00  -1.5109999803826213e-03 7.5599999399855733e-04 0.0000000000000000e+00  -2.2670000325888395e-03 7.5599999399855733e-04 0.0000000000000000e+00  1.4333000406622887e-02 -7.9079996794462204e-03 0.0000000000000000e+00  -2.2670000325888395e-03 1.0029999539256096e-03 0.0000000000000000e+00  1.7292000353336334e-02 -8.4929997101426125e-03 0.0000000000000000e+00  1.5823999419808388e-02 -1.1610000394284725e-02 0.0000000000000000e+00  1.8875999376177788e-02 -1.0573999956250191e-02 0.0000000000000000e+00  2.2835999727249146e-02 -9.0990001335740089e-03 0.0000000000000000e+00  1.9573999568820000e-02 -1.0394999757409096e-02 0.0000000000000000e+00  1.9441999495029449e-02 -1.2227999977767467e-02 0.0000000000000000e+00  1.6993999481201172e-02 -1.4519999735057354e-02 0.0000000000000000e+00  1.8438000231981277e-02 -1.4107000082731247e-02 0.0000000000000000e+00  1.7237000167369843e-02 -1.2724000029265881e-02 0.0000000000000000e+00  2.2920999675989151e-02 -7.1609998121857643e-03 0.0000000000000000e+00  1.9144000485539436e-02 -5.6570000015199184e-03 0.0000000000000000e+00  2.1361000835895538e-02 -3.1910000834614038e-03 0.0000000000000000e+00  2.2482000291347504e-02 -5.1130000501871109e-03 0.0000000000000000e+00  1.3233000412583351e-02 -1.8045000731945038e-02 0.0000000000000000e+00  4.9570001661777496e-02 5.3400001488626003e-03 0.0000000000000000e+00  4.4939000159502029e-02 5.9730000793933868e-03 0.0000000000000000e+00  5.0620000809431076e-02 7.4649997986853123e-03 0.0000000000000000e+00  7.3948003351688385e-02 1.3186999596655369e-02 0.0000000000000000e+00  8.0572001636028290e-02 1.2922000139951706e-02 0.0000000000000000e+00  7.0136003196239471e-02 1.2945000082254410e-02 0.0000000000000000e+00  9.5889996737241745e-03 -1.9461000338196754e-02 0.0000000000000000e+00  -7.5380001217126846e-03 -2.3646999150514603e-02 0.0000000000000000e+00  6.5100000938400626e-04 -2.2321999073028564e-02 0.0000000000000000e+00  1.8400000408291817e-03 -2.1103000268340111e-02 0.0000000000000000e+00  -1.0310000507161021e-03 2.7600000612437725e-04 0.0000000000000000e+00  -7.5599999399855733e-04 0.0000000000000000e+00 0.0000000000000000e+00  4.8144001513719559e-02 4.7848999500274658e-02 0.0000000000000000e+00  4.1597999632358551e-02 3.6823000758886337e-02 0.0000000000000000e+00  4.5547999441623688e-02 4.2759001255035400e-02 0.0000000000000000e+00  5.2972000092267990e-02 5.5821999907493591e-02 0.0000000000000000e+00  9.4061002135276794e-02 1.6339799761772156e-01 0.0000000000000000e+00  9.5638997852802277e-02 1.7062699794769287e-01 0.0000000000000000e+00  7.9401001334190369e-02 1.7141799628734589e-01 0.0000000000000000e+00  3.1224999576807022e-02 3.1514000147581100e-02 0.0000000000000000e+00  -1.6899000853300095e-02 -1.4154000207781792e-02 0.0000000000000000e+00  -1.7144000157713890e-02 -1.4644999988377094e-02 0.0000000000000000e+00  3.7436999380588531e-02 5.1915999501943588e-02 0.0000000000000000e+00  -1.8888000398874283e-02 -1.8169999122619629e-02 0.0000000000000000e+00  -1.8888000398874283e-02 -1.8881000578403473e-02 0.0000000000000000e+00  5.9106998145580292e-02 9.3947000801563263e-02 0.0000000000000000e+00  7.1567997336387634e-02 1.0749699920415878e-01 0.0000000000000000e+00  6.0903999954462051e-02 8.9803002774715424e-02 0.0000000000000000e+00  6.2669001519680023e-02 8.6171999573707581e-02 0.0000000000000000e+00  4.8581000417470932e-02 7.1194998919963837e-02 0.0000000000000000e+00  7.4325002729892731e-02 1.0399500280618668e-01 0.0000000000000000e+00  8.3870999515056610e-02 1.2067999690771103e-01 0.0000000000000000e+00  7.7253997325897217e-02 1.0112199932336807e-01 0.0000000000000000e+00  8.0493003129959106e-02 9.9197998642921448e-02 0.0000000000000000e+00  9.0920999646186829e-02 1.1479000002145767e-01 0.0000000000000000e+00  9.4425000250339508e-02 1.1270800232887268e-01 0.0000000000000000e+00  6.9954998791217804e-02 9.1057002544403076e-02 0.0000000000000000e+00  7.5603000819683075e-02 1.0692799836397171e-01 0.0000000000000000e+00  7.1691997349262238e-02 9.5659002661705017e-02 0.0000000000000000e+00  7.7279999852180481e-02 1.1180499941110611e-01 0.0000000000000000e+00  -6.5130000002682209e-03 -4.6899999142624438e-04 0.0000000000000000e+00  -7.0170001126825809e-03 -9.7300001652911305e-04 0.0000000000000000e+00  -1.3357000425457954e-02 -9.9189998582005501e-03 0.0000000000000000e+00  -1.2678000144660473e-02 -9.3379998579621315e-03 0.0000000000000000e+00  1.0343799740076065e-01 1.2692500650882721e-01 0.0000000000000000e+00  1.3508400321006775e-01 1.6439199447631836e-01 0.0000000000000000e+00  1.3447299599647522e-01 1.6886700689792633e-01 0.0000000000000000e+00  1.3917599618434906e-01 1.6548900306224823e-01 0.0000000000000000e+00  1.3022899627685547e-01 1.6756400465965271e-01 0.0000000000000000e+00  7.9921998083591461e-02 1.2398800253868103e-01 0.0000000000000000e+00  4.9839999526739120e-02 3.3790998160839081e-02 0.0000000000000000e+00  5.7544000446796417e-02 3.8130998611450195e-02 0.0000000000000000e+00  3.7571001797914505e-02 2.5118999183177948e-02 0.0000000000000000e+00  1.8304799497127533e-01 1.0989499837160110e-01 0.0000000000000000e+00  1.8961800634860992e-01 1.0891199856996536e-01 0.0000000000000000e+00  1.8030400574207306e-01 1.0248500108718872e-01 0.0000000000000000e+00  1.8753500282764435e-01 1.0147199779748917e-01 0.0000000000000000e+00  1.9586700201034546e-01 1.0735499858856201e-01 0.0000000000000000e+00  1.8475799262523651e-01 9.3231000006198883e-02 0.0000000000000000e+00  1.7707799375057220e-01 9.4111002981662750e-02 0.0000000000000000e+00  1.8925300240516663e-01 1.1574000120162964e-01 0.0000000000000000e+00  1.1576999910175800e-02 -2.7710000053048134e-02 0.0000000000000000e+00  -1.4239000156521797e-02 -8.5780002176761627e-02 0.0000000000000000e+00  1.1109000071883202e-02 -2.8177000582218170e-02 0.0000000000000000e+00  -1.4046000316739082e-02 -9.4566002488136292e-02 0.0000000000000000e+00  -1.6224000602960587e-02 -9.6708998084068298e-02 0.0000000000000000e+00  -1.9147999584674835e-02 -1.0777900367975235e-01 0.0000000000000000e+00  -1.9611999392509460e-02 -1.0032899677753448e-01 0.0000000000000000e+00  -1.8812000751495361e-02 -1.1643999814987183e-01 0.0000000000000000e+00  -2.2679999470710754e-02 -1.1857999861240387e-01 0.0000000000000000e+00  -2.2841999307274818e-02 -1.1041899770498276e-01 0.0000000000000000e+00  1.2616000138223171e-02 -2.6670999825000763e-02 0.0000000000000000e+00  -4.4277999550104141e-02 -1.0900200158357620e-01 0.0000000000000000e+00  -4.0150001645088196e-02 -1.0175999999046326e-01 0.0000000000000000e+00  -4.2376000434160233e-02 -5.9346001595258713e-02 0.0000000000000000e+00  -3.6595001816749573e-02 -5.4402999579906464e-02 0.0000000000000000e+00  -4.1211999952793121e-02 -6.2518000602722168e-02 0.0000000000000000e+00  -3.5881001502275467e-02 -5.7583000510931015e-02 0.0000000000000000e+00  -4.0222998708486557e-02 -6.5702997148036957e-02 0.0000000000000000e+00  -3.5581998527050018e-02 -4.6013999730348587e-02 0.0000000000000000e+00  -4.0915001183748245e-02 -5.0043001770973206e-02 0.0000000000000000e+00  -4.0228001773357391e-02 -4.6259000897407532e-02 0.0000000000000000e+00  -7.4607998132705688e-02 -1.2727099657058716e-01 0.0000000000000000e+00  -6.5274000167846680e-02 -1.4696599543094635e-01 0.0000000000000000e+00  -6.5650999546051025e-02 -1.4264899492263794e-01 0.0000000000000000e+00  -6.5644003450870514e-02 -1.4403800666332245e-01 0.0000000000000000e+00  -6.8116001784801483e-02 -1.4204899966716766e-01 0.0000000000000000e+00  -6.6504999995231628e-02 -1.4059899747371674e-01 0.0000000000000000e+00  -5.9468999505043030e-02 -1.5026000142097473e-01 0.0000000000000000e+00  -5.9255998581647873e-02 -1.5177899599075317e-01 0.0000000000000000e+00  -6.1930000782012939e-02 -1.5467000007629395e-01 0.0000000000000000e+00  -6.3593000173568726e-02 -1.5501700341701508e-01 0.0000000000000000e+00  -6.4562000334262848e-02 -1.5810300409793854e-01 0.0000000000000000e+00  -4.6583000570535660e-02 -1.2292899936437607e-01 0.0000000000000000e+00  -4.8994999378919601e-02 -1.2946300208568573e-01 0.0000000000000000e+00  -4.5409001410007477e-02 -1.2282700091600418e-01 0.0000000000000000e+00  -4.1629001498222351e-02 -1.1548399925231934e-01 0.0000000000000000e+00  -2.2515000775456429e-02 -1.0198800265789032e-01 0.0000000000000000e+00  -2.3195000365376472e-02 -8.7917000055313110e-02 0.0000000000000000e+00  -2.4281000718474388e-02 -8.8494002819061279e-02 0.0000000000000000e+00  4.7200000844895840e-03 -1.6980000073090196e-03 0.0000000000000000e+00  5.2889999933540821e-03 -2.2670000325888395e-03 0.0000000000000000e+00  5.6409998796880245e-03 -3.1469999812543392e-03 0.0000000000000000e+00  6.0200002044439316e-03 -4.0950002148747444e-03 0.0000000000000000e+00  3.3770001027733088e-03 -3.0000001061125658e-06 0.0000000000000000e+00  1.2067000381648540e-02 2.4610001128166914e-03 0.0000000000000000e+00  1.5398999676108360e-02 2.6469998992979527e-03 0.0000000000000000e+00  8.3799995481967926e-03 1.6270000487565994e-03 0.0000000000000000e+00  3.5600000992417336e-03 -5.3800002206116915e-04 0.0000000000000000e+00  -1.2339999666437507e-03 1.5109999803826213e-03 0.0000000000000000e+00  7.0620002225041389e-03 -2.0129999611526728e-03 0.0000000000000000e+00  -7.5599999399855733e-04 1.5109999803826213e-03 0.0000000000000000e+00  -1.7239999724552035e-03 1.5109999803826213e-03 0.0000000000000000e+00  1.5304000116884708e-02 1.6589999431744218e-03 0.0000000000000000e+00  2.0705999806523323e-02 2.7300001238472760e-04 0.0000000000000000e+00  2.3970000445842743e-02 1.0209999745711684e-03 0.0000000000000000e+00  2.1301999688148499e-02 1.8179999897256494e-03 0.0000000000000000e+00  4.3625999242067337e-02 4.0319999679923058e-03 0.0000000000000000e+00  4.8850998282432556e-02 2.2899999748915434e-03 0.0000000000000000e+00  4.2167998850345612e-02 1.0120000224560499e-03 0.0000000000000000e+00  2.2151999175548553e-02 -1.0925999842584133e-02 0.0000000000000000e+00  2.9528999701142311e-02 -6.0979998670518398e-03 0.0000000000000000e+00  3.3762000501155853e-02 -3.0849999748170376e-03 0.0000000000000000e+00  3.4228999167680740e-02 -2.3409998975694180e-03 0.0000000000000000e+00  2.8183000162243843e-02 -6.9969999603927135e-03 0.0000000000000000e+00  2.4217000231146812e-02 -1.0037000291049480e-02 0.0000000000000000e+00  3.8249000906944275e-02 1.7400000069756061e-04 0.0000000000000000e+00  4.2885001748800278e-02 3.5220000427216291e-03 0.0000000000000000e+00  4.2449999600648880e-02 3.2679999712854624e-03 0.0000000000000000e+00  4.9265999346971512e-02 4.8539001494646072e-02 0.0000000000000000e+00  4.3664999306201935e-02 3.9436001330614090e-02 0.0000000000000000e+00  5.0551999360322952e-02 5.1199998706579208e-02 0.0000000000000000e+00  6.9839999079704285e-02 9.5927998423576355e-02 0.0000000000000000e+00  6.7691996693611145e-02 8.8344000279903412e-02 0.0000000000000000e+00  7.4112996459007263e-02 1.0562100261449814e-01 0.0000000000000000e+00  9.6215002238750458e-02 1.7800399661064148e-01 0.0000000000000000e+00  9.9453002214431763e-02 1.9330799579620361e-01 0.0000000000000000e+00  9.6865996718406677e-02 1.8668100237846375e-01 0.0000000000000000e+00  -7.5550000183284283e-03 -3.7774998694658279e-02 0.0000000000000000e+00  7.5263999402523041e-02 1.1936300247907639e-01 0.0000000000000000e+00  7.4914999306201935e-02 1.3070499897003174e-01 0.0000000000000000e+00  7.7744998037815094e-02 1.2771199643611908e-01 0.0000000000000000e+00  7.6237000524997711e-02 1.1523400247097015e-01 0.0000000000000000e+00  7.3507003486156464e-02 1.1034200340509415e-01 0.0000000000000000e+00  7.1579001843929291e-02 1.0154099762439728e-01 0.0000000000000000e+00  8.1986002624034882e-02 1.2859299778938293e-01 0.0000000000000000e+00  7.8588001430034637e-02 1.1720199882984161e-01 0.0000000000000000e+00  8.2984998822212219e-02 1.3479200005531311e-01 0.0000000000000000e+00  7.9481996595859528e-02 1.2300000339746475e-01 0.0000000000000000e+00  6.8916998803615570e-02 8.8169999420642853e-02 0.0000000000000000e+00  7.2830997407436371e-02 1.0053999722003937e-01 0.0000000000000000e+00  7.6545998454093933e-02 1.1268000304698944e-01 0.0000000000000000e+00  8.0086998641490936e-02 1.2728899717330933e-01 0.0000000000000000e+00  8.1738002598285675e-02 1.4103099703788757e-01 0.0000000000000000e+00  8.2073003053665161e-02 1.3290399312973022e-01 0.0000000000000000e+00  7.3936998844146729e-02 1.0188999772071838e-01 0.0000000000000000e+00  -9.0347997844219208e-02 8.7320998311042786e-02 0.0000000000000000e+00  -9.8518997430801392e-02 7.8272998332977295e-02 0.0000000000000000e+00  -9.8743997514247894e-02 8.9109003543853760e-02 0.0000000000000000e+00  -7.1868002414703369e-02 1.1930199712514877e-01 0.0000000000000000e+00  -7.4362002313137054e-02 1.1032900214195251e-01 0.0000000000000000e+00  -8.2555003464221954e-02 1.0686299949884415e-01 0.0000000000000000e+00  -8.0352000892162323e-02 9.7286000847816467e-02 0.0000000000000000e+00  -9.7360000014305115e-02 -9.1046996414661407e-02 0.0000000000000000e+00  -8.8354997336864471e-02 -8.2226000726222992e-02 0.0000000000000000e+00  -9.1208003461360931e-02 -8.7038002908229828e-02 0.0000000000000000e+00  -9.8704002797603607e-02 -9.5615997910499573e-02 0.0000000000000000e+00  -1.1609099805355072e-01 -1.0375600308179855e-01 0.0000000000000000e+00  -1.3406799733638763e-01 -8.5845001041889191e-02 0.0000000000000000e+00  -1.3579900562763214e-01 -9.3607999384403229e-02 0.0000000000000000e+00  -1.4062200486660004e-01 -8.6520001