<?xml version="1.0"?>
<VTKFile type="UnstructuredGrid"  version="0.1"  >
<UnstructuredGrid>
<Piece  NumberOfPoints="6340" NumberOfCells="12376">
<Points>
<DataArray  type="Float64"  NumberOfComponents="3"  format="ascii">-0.01924300007522106 0.02074499987065792 0  -0.02004799991846085 0.0214029997587204 0  -0.02023999951779842 0.02040999941527843 0  -0.02092899940907955 0.0211970005184412 0  -0.01945200003683567 0.01982799917459488 0  -0.01911200024187565 0.02161700092256069 0  -0.01971700042486191 0.02236099913716316 0  -0.01923700049519539 0.02316999994218349 0  -0.0203079991042614 0.02314599975943565 0  -0.0186379998922348 0.02234300039708614 0  -0.007581999991089106 0.01873699948191643 0  -0.008268999867141247 0.01951600052416325 0  -0.008590999990701675 0.01857800036668777 0  -0.009286999702453613 0.0193949993699789 0  -0.02647499926388264 0.08035600185394287 0  -0.02741600014269352 0.08097200095653534 0  -0.02761499956250191 0.08016400039196014 0  -0.0274449996650219 0.07337799668312073 0  -0.0280349999666214 0.07426600158214569 0  -0.02829599939286709 0.07333400100469589 0  -0.02902000024914742 0.07393000274896622 0  -0.01225700043141842 0.09089100360870361 0  -0.01326099969446659 0.09088599681854248 0  -0.01276700012385845 0.09001699835062027 0  -0.02039800025522709 0.08568199723958969 0  -0.0193840004503727 0.08568199723958969 0  -0.019896000623703 0.08654800057411194 0  -0.01988700032234192 0.08481500297784805 0  -0.02238300070166588 0.02478300034999847 0  -0.02136600017547607 0.02479499951004982 0  -0.02187499962747097 0.02565399929881096 0  -0.0223350003361702 0.02651700004935265 0  -0.02291199937462807 0.0256549995392561 0  -0.02084900066256523 0.02567099966108799 0  -0.02033700048923492 0.02481799945235252 0  -0.01929700002074242 0.02483999915421009 0  -0.01982199959456921 0.02568599954247475 0  -0.02186699956655502 0.02390200085937977 0  -0.02298399992287159 0.02395300008356571 0  -0.02219999954104424 0.02264999970793724 0  -0.02158300019800663 0.02194399945437908 0  -0.0213370006531477 0.02303100004792213 0  -0.02069099992513657 0.02222399972379208 0  -0.01570999994874001 0.02210400067269802 0  -0.01622300036251545 0.02121599949896336 0  -0.01516999956220388 0.02125700004398823 0  -0.01669199950993061 0.02216299995779991 0  -0.01770900003612041 0.02216099947690964 0  -0.01721600070595741 0.02304200083017349 0  0.04268199950456619 0.08431600034236908 0  0.04240800067782402 0.08342800289392471 0  0.04371799901127815 0.08376699686050415 0  0.04488899931311607 0.09601300209760666 0  0.04568200185894966 0.09643000364303589 0  0.04467099905014038 0.09692499786615372 0  0.02839899994432926 0.1048920005559921 0  0.02847900055348873 0.1039350032806396 0  0.0293940007686615 0.1044050008058548 0  0.02748499996960163 0.1053399965167046 0  0.02753799967467785 0.1041779965162277 0  -0.004259999841451645 0.09962700307369232 0  -0.003256999887526035 0.09962199628353119 0  -0.003762000007554889 0.1004969999194145 0  -0.002758000046014786 0.100492000579834 0  -0.01669899933040142 0.1012070029973984 0  -0.01721400022506714 0.1004630029201508 0  -0.01603499986231327 0.1005550026893616 0  -0.01771200075745583 0.1014339998364449 0  -0.0116370003670454 0.1074810028076172 0  -0.01174599956721067 0.1084280014038086 0  -0.01250800024718046 0.1076690033078194 0  -0.008768999949097633 0.09877300262451172 0  -0.007766999769955873 0.09877099841833115 0  -0.008275000378489494 0.09964700043201447 0  -0.009770999662578106 0.09877300262451172 0  -0.00926200021058321 0.09789899736642838 0  -0.01026399992406368 0.09789899736642838 0  -0.01230200007557869 0.1013450026512146 0  -0.01277100015431643 0.102182999253273 0  -0.01334199961274862 0.1013299971818924 0  -0.0112880002707243 0.09963999688625336 0  -0.01230499986559153 0.09964100271463394 0  -0.01178199984133244 0.09877400100231171 0  0.01334299985319376 0.095210000872612 0  0.01434899959713221 0.095210000872612 0  0.01384599972516298 0.09607700258493423 0  0.007837999612092972 0.07873199880123138 0  0.008341000415384769 0.07786399871110916 0  0.008843000046908855 0.0787310004234314 0  -0.007280000019818544 0.01789999939501286 0  -0.006455999799072742 0.01816499978303909 0  -0.00815299991518259 0.01772399991750717 0  -0.009064000099897385 0.01754100061953068 0  -0.01274000015109777 0.01724000088870525 0  -0.01300700008869171 0.01828699931502342 0  -0.01361500006169081 0.01738099940121174 0  -0.01217599958181381 0.01815400086343288 0  -0.01221199985593557 0.01915599964559078 0  -0.01135099958628416 0.01837800070643425 0  -0.01177099999040365 0.02204700000584126 0  -0.01225099992007017 0.02108599990606308 0  -0.01130199991166592 0.02118100039660931 0  -0.01082600001245737 0.02037299983203411 0  -0.0102779995650053 0.02122999913990498 0  -0.01178000029176474 0.02017699927091599 0  -0.01273200009018183 0.02201100066304207 0  -0.01417300011962652 0.02117599919438362 0  -0.01468800008296967 0.02209999971091747 0  -0.01369800046086311 0.02204100042581558 0  -0.00877899955958128 0.02035300061106682 0  -0.01073999982327223 0.03091100044548512 0  -0.01124399993568659 0.03003400005400181 0  -0.01023699995130301 0.03003500029444695 0  -0.005204999819397926 0.03004200011491776 0  -0.005710000172257423 0.03091800026595592 0  -0.006209999788552523 0.03003999963402748 0  -0.007807000074535608 0.02048199996352196 0  -0.005291999783366919 0.02010799944400787 0  -0.006279999855905771 0.01988700032234192 0  -0.005491000134497881 0.01926900073885918 0  -0.005566000007092953 0.0184519998729229 0  -0.004579999949783087 0.01876999996602535 0  0.04660499840974808 0.09197200089693069 0  0.04750800132751465 0.09154000133275986 0  0.04718099907040596 0.09265899658203125 0  0.04612100124359131 0.09275099635124207 0  0.01693500019609928 0.05963199958205223 0  0.01794500090181828 0.05962900072336197 0  0.01743699982762337 0.06049700081348419 0  0.03096799924969673 0.04557399824261665 0  0.03148100152611732 0.04454800114035606 0  0.03190699964761734 0.04532400146126747 0  0.03294000029563904 0.04998400062322617 0  0.03387799859046936 0.04937399923801422 0  0.03421700000762939 0.05014900118112564 0  0.03264199942350388 0.05343899875879288 0  0.03166799992322922 0.05344599857926369 0  0.03222399950027466 0.05254499986767769 0  0.03178999945521355 0.05168899893760681 0  0.03282200172543526 0.05164999887347221 0  0.03122000023722649 0.0525749996304512 0  0.03067399933934212 0.05346500128507614 0  0.03073900006711483 0.05173999816179276 0  0.0302130002528429 0.05092199891805649 0  0.02969300001859665 0.05177599936723709 0  0.02916399948298931 0.05094299837946892 0  0.044149000197649 0.09432800114154816 0  0.04310600087046623 0.09433099627494812 0  0.04362300038337708 0.09347900003194809 0  0.04259999841451645 0.09344899654388428 0  0.008832000195980072 0.02547900006175041 0  0.009630000218749046 0.02593000046908855 0  0.008826999925076962 0.026528000831604 0  0.009699000045657158 0.02687500044703484 0  0.02865399979054928 0.05179899930953979 0  0.02455399930477142 0.0535539984703064 0  0.02404399961233139 0.05441800132393837 0  0.02353500016033649 0.05355900153517723 0  0.02506300061941147 0.05441199988126755 0  0.03115399926900864 0.05434000119566917 0  0.02034099958837032 0.03627900034189224 0  0.01940600015223026 0.03612999990582466 0  0.01985999941825867 0.03525799885392189 0  0.01443499978631735 0.04138699918985367 0  0.0134290000423789 0.04139100015163422 0  0.0139359999448061 0.04051699861884117 0  0.01292899996042252 0.04052200168371201 0  0.01242300029844046 0.04139500111341476 0  0.01242799963802099 0.03965499997138977 0  0.01343700010329485 0.03965000063180923 0  0.01392900012433529 0.04225999861955643 0  -0.02883400022983551 0.07484400272369385 0  -0.02768599987030029 0.07511799782514572 0  -0.0286640003323555 0.07568000257015228 0  -0.02704199962317944 0.07429499924182892 0  -0.02659000083804131 0.075143001973629 0  -0.02552700042724609 0.07517299801111221 0  -0.02596399933099747 0.07602100074291229 0  -0.02498899959027767 0.07433000206947327 0  -0.02448599971830845 0.07518900185823441 0  -0.02496200054883957 0.07603900134563446 0  -0.02916000038385391 0.0729840025305748 0  -0.01938199996948242 0.08740799874067307 0  -0.0204050000756979 0.08741000294685364 0  -0.01771399937570095 0.09698600322008133 0  -0.01872099936008453 0.09702300280332565 0  -0.01822499930858612 0.09613700211048126 0  -0.0192280001938343 0.09617900103330612 0  -0.01873400062322617 0.09528700262308121 0  -0.01632099971175194 0.09970799833536148 0  -0.01535299979150295 0.09969600290060043 0  -0.0149569995701313 0.1005420014262199 0  -0.0137729998677969 0.09001299738883972 0  -0.01179200038313866 0.08307799696922302 0  -0.01078199967741966 0.08307799696922302 0  -0.01128599978983402 0.08394499868154526 0  -0.01077899988740683 0.08481299877166748 0  -0.0102760000154376 0.08394599705934525 0  -0.01583500020205975 0.08134099841117859 0  -0.01634000055491924 0.08047199994325638 0  -0.01532999984920025 0.08047399669885635 0  -0.01431899983435869 0.08047500252723694 0  -0.01482500042766333 0.07960700243711472 0  -0.01887499913573265 0.08481399714946747 0  -0.01836800016462803 0.08394599705934525 0  -0.01937999948859215 0.08394700288772583 0  -0.02039399929344654 0.08394999802112579 0  -0.0254720002412796 0.07689899951219559 0  -0.02586999908089638 0.07950200140476227 0  -0.02541100047528744 0.08035799860954285 0  -0.02339800074696541 0.02464199997484684 0  -0.02380000054836273 0.02531000040471554 0  -0.02410100027918816 0.02598999999463558 0  -0.02442399971187115 0.02672299928963184 0  -0.02333899959921837 0.02656099945306778 0  -0.01980100013315678 0.0239889994263649 0  -0.01875000074505806 0.02400000020861626 0  -0.0208550002425909 0.0239460002630949 0  -0.02257999964058399 0.02328200079500675 0  -0.01714600063860416 0.01838799938559532 0  -0.01676999963819981 0.01915499940514565 0  -0.01795000024139881 0.0187199991196394 0  -0.01632199995219707 0.01804699935019016 0  -0.01818899996578693 0.02314399927854538 0  -0.01620600000023842 0.0
[...]
<PointData  Vectors="velocity"> 
<DataArray  type="Float64"  Name="velocity"  NumberOfComponents="3" format="ascii">1.2959999730810523e-03 1.2019999558106065e-03 0.0000000000000000e+00  9.8300003446638584e-04 9.2100002802908421e-04 0.0000000000000000e+00  -3.7779998965561390e-03 2.2670000325888395e-03 0.0000000000000000e+00  -4.0429998189210892e-03 3.0630000401288271e-03 0.0000000000000000e+00  -3.5170000046491623e-03 2.0059999078512192e-03 0.0000000000000000e+00  2.3040000814944506e-03 2.0379999186843634e-03 0.0000000000000000e+00  2.1049999631941319e-03 1.8589999526739120e-03 0.0000000000000000e+00  3.2120000105351210e-03 2.6759998872876167e-03 0.0000000000000000e+00  1.8309999722987413e-03 1.6139999497681856e-03 0.0000000000000000e+00  3.5949999000877142e-03 3.0040000565350056e-03 0.0000000000000000e+00  -1.0900000343099236e-03 1.2209999840706587e-03 0.0000000000000000e+00  9.9529996514320374e-03 6.1160000041127205e-03 0.0000000000000000e+00  1.1630000080913305e-03 2.1120000164955854e-03 0.0000000000000000e+00  9.7949998453259468e-03 6.3100000843405724e-03 0.0000000000000000e+00  -6.7619998008012772e-03 -6.2099997885525227e-03 0.0000000000000000e+00  2.3109999019652605e-03 1.1110000312328339e-02 0.0000000000000000e+00  3.0159999150782824e-03 1.1579999700188637e-02 0.0000000000000000e+00  -8.8860001415014267e-03 -2.1585000678896904e-02 0.0000000000000000e+00  -7.6939999125897884e-03 -1.4458999969065189e-02 0.0000000000000000e+00  -6.8430001847445965e-03 -1.4282000251114368e-02 0.0000000000000000e+00  6.0439999215304852e-03 1.3598999939858913e-02 0.0000000000000000e+00  -9.9448002874851227e-02 -6.1916999518871307e-02 0.0000000000000000e+00  -8.6203999817371368e-02 -4.5958999544382095e-02 0.0000000000000000e+00  -1.0035099834203720e-01 -6.5344996750354767e-02 0.0000000000000000e+00  -3.3799000084400177e-02 -2.1466000005602837e-02 0.0000000000000000e+00  -4.3234001845121384e-02 -3.1428001821041107e-02 0.0000000000000000e+00  -3.5881999880075455e-02 -1.7852999269962311e-02 0.0000000000000000e+00  -3.9577998220920563e-02 -3.4083999693393707e-02 0.0000000000000000e+00  4.4299999717622995e-04 4.2100000428035855e-04 0.0000000000000000e+00  1.1370000429451466e-03 1.0089999996125698e-03 0.0000000000000000e+00  5.6299997959285975e-04 5.3199997637420893e-04 0.0000000000000000e+00  -9.9999999747524271e-07 9.0000001364387572e-05 0.0000000000000000e+00  7.9999997979030013e-05 1.1000000085914508e-04 0.0000000000000000e+00  1.3940000208094716e-03 1.1919999960809946e-03 0.0000000000000000e+00  2.1079999860376120e-03 1.7620000289753079e-03 0.0000000000000000e+00  3.3869999460875988e-03 2.6579999830573797e-03 0.0000000000000000e+00  2.4890000931918621e-03 1.9670000765472651e-03 0.0000000000000000e+00  6.9600000279024243e-04 6.4599997131153941e-04 0.0000000000000000e+00  -5.6429998949170113e-03 6.3829999417066574e-03 0.0000000000000000e+00  -4.5329998247325420e-03 4.5329998247325420e-03 0.0000000000000000e+00  -4.2949998751282692e-03 3.8189999759197235e-03 0.0000000000000000e+00  7.9999997979030013e-04 7.4500002665445209e-04 0.0000000000000000e+00  9.3600002583116293e-04 8.7300001177936792e-04 0.0000000000000000e+00  8.5869999602437019e-03 6.2000001780688763e-03 0.0000000000000000e+00  6.5279998816549778e-03 5.0309998914599419e-03 0.0000000000000000e+00  8.1919999793171883e-03 5.9620002284646034e-03 0.0000000000000000e+00  6.7940000444650650e-03 5.1549999043345451e-03 0.0000000000000000e+00  4.9479999579489231e-03 3.9679999463260174e-03 0.0000000000000000e+00  6.4829997718334198e-03 4.8710000701248646e-03 0.0000000000000000e+00  2.3424999788403511e-02 3.5666000097990036e-02 0.0000000000000000e+00  2.3202000185847282e-02 3.6625001579523087e-02 0.0000000000000000e+00  -1.1811999604105949e-02 -5.5650002323091030e-03 0.0000000000000000e+00  1.0670999996364117e-02 2.9710000380873680e-02 0.0000000000000000e+00  8.9250002056360245e-03 2.6530999690294266e-02 0.0000000000000000e+00  6.6760000772774220e-03 2.8684999793767929e-02 0.0000000000000000e+00  -8.9115001261234283e-02 -4.4493999332189560e-02 0.0000000000000000e+00  -8.9189998805522919e-02 -3.5362001508474350e-02 0.0000000000000000e+00  -8.3820000290870667e-02 -3.3443998545408249e-02 0.0000000000000000e+00  -9.3166001141071320e-02 -5.4561998695135117e-02 0.0000000000000000e+00  -9.5241002738475800e-02 -4.4008001685142517e-02 0.0000000000000000e+00  -4.4562000781297684e-02 -9.8103001713752747e-02 0.0000000000000000e+00  -5.6742001324892044e-02 -1.1261200159788132e-01 0.0000000000000000e+00  -4.0589001029729843e-02 -9.4847999513149261e-02 0.0000000000000000e+00  -5.2506998181343079e-02 -1.0904899984598160e-01 0.0000000000000000e+00  4.1179001331329346e-02 5.1920000463724136e-02 0.0000000000000000e+00  4.0713999420404434e-02 5.2841000258922577e-02 0.0000000000000000e+00  4.0144000202417374e-02 5.1336001604795456e-02 0.0000000000000000e+00  -9.0479999780654907e-03 7.5599999399855733e-04 0.0000000000000000e+00  2.2652000188827515e-02 3.0919000506401062e-02 0.0000000000000000e+00  -1.7460000235587358e-03 2.0320001058280468e-03 0.0000000000000000e+00  -2.0149999763816595e-03 1.7620000289753079e-03 0.0000000000000000e+00  -8.6899995803833008e-03 -3.1456001102924347e-02 0.0000000000000000e+00  -1.8767999485135078e-02 -4.9012999981641769e-02 0.0000000000000000e+00  -1.7190000507980585e-03 -3.1807001680135727e-02 0.0000000000000000e+00  -1.2099999730708078e-04 -1.5662999823689461e-02 0.0000000000000000e+00  -1.4981999993324280e-02 -3.1642001122236252e-02 0.0000000000000000e+00  -6.0859997756779194e-03 -1.5033000148832798e-02 0.0000000000000000e+00  3.4001000225543976e-02 2.9787000268697739e-02 0.0000000000000000e+00  3.7312000989913940e-02 3.5080000758171082e-02 0.0000000000000000e+00  3.7053000181913376e-02 3.8183998316526413e-02 0.0000000000000000e+00  2.1410999819636345e-02 1.3163999654352665e-02 0.0000000000000000e+00  2.6426000520586967e-02 2.3948000743985176e-02 0.0000000000000000e+00  1.5486000105738640e-02 1.3434000313282013e-02 0.0000000000000000e+00  -1.8577300012111664e-01 -8.9552000164985657e-02 0.0000000000000000e+00  -1.7863099277019501e-01 -7.5828999280929565e-02 0.0000000000000000e+00  -1.7937399446964264e-01 -8.9474998414516449e-02 0.0000000000000000e+00  -5.8449998497962952e-02 -9.4293996691703796e-02 0.0000000000000000e+00  -4.1809998452663422e-02 -7.7478997409343719e-02 0.0000000000000000e+00  -5.3663998842239380e-02 -7.0961996912956238e-02 0.0000000000000000e+00  -4.5329998247325420e-03 -7.5599999399855733e-04 0.0000000000000000e+00  -4.7639999538660049e-03 -9.8600005730986595e-04 0.0000000000000000e+00  -4.2909998446702957e-03 -5.1400001393631101e-04 0.0000000000000000e+00  -4.0389997884631157e-03 -2.6199998683296144e-04 0.0000000000000000e+00  -3.7779998965561390e-03 0.0000000000000000e+00 0.0000000000000000e+00  2.7159999590367079e-03 2.0959998946636915e-03 0.0000000000000000e+00  -3.7779998965561390e-03 2.4799999664537609e-04 0.0000000000000000e+00  2.7830000035464764e-03 2.1820000838488340e-03 0.0000000000000000e+00  6.5250000916421413e-03 4.6529998071491718e-03 0.0000000000000000e+00  4.0879999287426472e-03 3.1310000922530890e-03 0.0000000000000000e+00  1.4216000214219093e-02 8.8449995964765549e-03 0.0000000000000000e+00  1.1107999831438065e-02 7.3179998435080051e-03 0.0000000000000000e+00  1.2839999981224537e-02 8.1590004265308380e-03 0.0000000000000000e+00  1.2040000408887863e-02 7.7129998244345188e-03 0.0000000000000000e+00  1.4697999693453312e-02 8.9050000533461571e-03 0.0000000000000000e+00  9.8489997908473015e-03 6.6160000860691071e-03 0.0000000000000000e+00  1.2842999771237373e-02 8.2419998943805695e-03 0.0000000000000000e+00  8.9419996365904808e-03 6.2560001388192177e-03 0.0000000000000000e+00  1.0471000336110592e-02 7.1979998610913754e-03 0.0000000000000000e+00  1.1831000447273254e-02 7.8239999711513519e-03 0.0000000000000000e+00  1.5426999889314175e-02 8.7440004572272301e-03 0.0000000000000000e+00  2.6372000575065613e-02 6.4220000058412552e-03 0.0000000000000000e+00  2.4462999776005745e-02 6.9030001759529114e-03 0.0000000000000000e+00  2.8122000396251678e-02 1.0201999917626381e-02 0.0000000000000000e+00  4.1354998946189880e-02 2.3932000622153282e-02 0.0000000000000000e+00  4.2601000517606735e-02 2.3048000410199165e-02 0.0000000000000000e+00  3.9533000439405441e-02 2.2822000086307526e-02 0.0000000000000000e+00  1.6899999231100082e-02 8.7850000709295273e-03 0.0000000000000000e+00  7.6799998059868813e-03 1.8799999961629510e-03 0.0000000000000000e+00  8.4119997918605804e-03 3.8729999214410782e-03 0.0000000000000000e+00  -2.9200001154094934e-03 -1.2809999752789736e-03 0.0000000000000000e+00  -5.0130002200603485e-03 -1.2349999742582440e-03 0.0000000000000000e+00  -5.2889999933540821e-03 -1.5109999803826213e-03 0.0000000000000000e+00  2.0016999915242195e-02 2.5636000558733940e-02 0.0000000000000000e+00  1.8440999090671539e-02 2.2549999877810478e-02 0.0000000000000000e+00  1.8133999779820442e-02 2.4264000356197357e-02 0.0000000000000000e+00  1.9602999091148376e-02 2.7620000764727592e-02 0.0000000000000000e+00  1.0128799825906754e-01 9.3139998614788055e-02 0.0000000000000000e+00  9.8520003259181976e-02 1.0239399969577789e-01 0.0000000000000000e+00  9.8197996616363525e-02 1.0052199661731720e-01 0.0000000000000000e+00  1.6094999387860298e-02 3.0450999736785889e-02 0.0000000000000000e+00  -1.8610000610351562e-02 -9.8989997059106827e-03 0.0000000000000000e+00  -1.8364999443292618e-02 -1.0634999722242355e-02 0.0000000000000000e+00  1.8247999250888824e-02 4.6863999217748642e-02 0.0000000000000000e+00  -1.6620999202132225e-02 -1.4883000403642654e-02 0.0000000000000000e+00  -1.6620999202132225e-02 -1.5356999821960926e-02 0.0000000000000000e+00  2.7481999248266220e-02 7.4059002101421356e-02 0.0000000000000000e+00  3.4010998904705048e-02 8.1730999052524567e-02 0.0000000000000000e+00  2.8147999197244644e-02 7.1142002940177917e-02 0.0000000000000000e+00  2.8914999216794968e-02 6.8371996283531189e-02 0.0000000000000000e+00  2.1748999133706093e-02 6.0396999120712280e-02 0.0000000000000000e+00  3.5025998950004578e-02 7.9020999372005463e-02 0.0000000000000000e+00  4.0856000036001205e-02 8.8965997099876404e-02 0.0000000000000000e+00  3.7493001669645309e-02 7.5781002640724182e-02 0.0000000000000000e+00  4.2015999555587769e-02 7.1613997220993042e-02 0.0000000000000000e+00  4.6955000609159470e-02 8.1721000373363495e-02 0.0000000000000000e+00  5.0023999065160751e-02 7.8043997287750244e-02 0.0000000000000000e+00  1.7627000808715820e-02 3.4088000655174255e-02 0.0000000000000000e+00  1.8395999446511269e-02 3.7774000316858292e-02 0.0000000000000000e+00  2.0982999354600906e-02 3.6428999155759811e-02 0.0000000000000000e+00  2.1871000528335571e-02 4.0445998311042786e-02 0.0000000000000000e+00  -7.7900001779198647e-03 -2.2670000325888395e-03 0.0000000000000000e+00  -8.0420002341270447e-03 -2.2670000325888395e-03 0.0000000000000000e+00  1.8799999961629510e-03 2.9999999242136255e-05 0.0000000000000000e+00  3.3420000690966845e-03 8.9700001990422606e-04 0.0000000000000000e+00  5.5580001324415207e-02 8.6833000183105469e-02 0.0000000000000000e+00  8.3181999623775482e-02 1.0629600286483765e-01 0.0000000000000000e+00  8.5125997662544250e-02 1.1060699820518494e-01 0.0000000000000000e+00  8.8344998657703400e-02 1.0516200214624405e-01 0.0000000000000000e+00  7.8129999339580536e-02 1.1218900233507156e-01 0.0000000000000000e+00  3.9161998778581619e-02 9.1637000441551208e-02 0.0000000000000000e+00  2.6495000347495079e-02 1.5825999900698662e-02 0.0000000000000000e+00  2.9216000810265541e-02 1.7285000532865524e-02 0.0000000000000000e+00  2.2095000371336937e-02 1.3287000358104706e-02 0.0000000000000000e+00  8.1704996526241302e-02 3.7250999361276627e-02 0.0000000000000000e+00  8.3869002759456635e-02 3.5362999886274338e-02 0.0000000000000000e+00  7.8516997396945953e-02 3.4742001444101334e-02 0.0000000000000000e+00  8.0738000571727753e-02 3.3364001661539078e-02 0.0000000000000000e+00  8.5611000657081604e-02 3.3481001853942871e-02 0.0000000000000000e+00  7.7030003070831299e-02 3.1633999198675156e-02 0.0000000000000000e+00  7.4915997684001923e-02 3.2423999160528183e-02 0.0000000000000000e+00  8.6943998932838440e-02 3.7585001438856125e-02 0.0000000000000000e+00  6.0439999215304852e-03 1.3342999853193760e-02 0.0000000000000000e+00  -8.7470002472400665e-03 -1.5004999935626984e-02 0.0000000000000000e+00  6.0439999215304852e-03 1.3109999708831310e-02 0.0000000000000000e+00  -1.0280000045895576e-02 -2.2493999451398849e-02 0.0000000000000000e+00  -1.1971999891102314e-02 -2.4113999679684639e-02 0.0000000000000000e+00  -1.5775000676512718e-02 -3.4612998366355896e-02 0.0000000000000000e+00  -1.4369999989867210e-02 -2.7127999812364578e-02 0.0000000000000000e+00  -1.7155999317765236e-02 -4.3616998940706253e-02 0.0000000000000000e+00  -1.9927000626921654e-02 -4.6303000301122665e-02 0.0000000000000000e+00  -1.8408000469207764e-02 -3.7289001047611237e-02 0.0000000000000000e+00  6.0439999215304852e-03 1.3598999939858913e-02 0.0000000000000000e+00  -3.5927001386880875e-02 -1.3810000382363796e-02 0.0000000000000000e+00  -2.5715000927448273e-02 -4.9769999459385872e-03 0.0000000000000000e+00  2.8611000627279282e-02 5.1468998193740845e-02 0.0000000000000000e+00  3.1468998640775681e-02 5.2416998893022537e-02 0.0000000000000000e+00  2.5601999834179878e-02 4.9821998924016953e-02 0.0000000000000000e+00  2.9617000371217728e-02 5.0948001444339752e-02 0.0000000000000000e+00  1.7519000917673111e-02 4.6434000134468079e-02 0.0000000000000000e+00  3.8819998502731323e-02 5.1832001656293869e-02 0.0000000000000000e+00  3.7011001259088516e-02 4.7798998653888702e-02 0.0000000000000000e+00  3.8417998701334000e-02 4.6422000974416733e-02 0.0000000000000000e+00  -8.7236002087593079e-02 -4.9329001456499100e-02 0.0000000000000000e+00  -1.1922799795866013e-01 -1.6085299849510193e-01 0.0000000000000000e+00  -1.2674799561500549e-01 -1.7400799691677094e-01 0.0000000000000000e+00  -1.2794199585914612e-01 -1.6070599853992462e-01 0.0000000000000000e+00  -1.3640500605106354e-01 -1.6038300096988678e-01 0.0000000000000000e+00  -1.3562999665737152e-01 -1.7433899641036987e-01 0.0000000000000000e+00  -8.2125999033451080e-02 -1.2109199911355972e-01 0.0000000000000000e+00  -7.5731001794338226e-02 -1.2133699655532837e-01 0.0000000000000000e+00  -8.3406001329421997e-02 -1.3487400114536285e-01 0.0000000000000000e+00  -9.0612001717090607e-02 -1.4793199300765991e-01 0.0000000000000000e+00  -8.3384998142719269e-02 -1.4748600125312805e-01 0.0000000000000000e+00  -4.9387000501155853e-02 -4.5735001564025879e-02 0.0000000000000000e+00  -5.7321000844240189e-02 -6.1124000698328018e-02 0.0000000000000000e+00  -4.6216998249292374e-02 -4.8128999769687653e-02 0.0000000000000000e+00  -3.6359000951051712e-02 -3.6786001175642014e-02 0.0000000000000000e+00  -1.4076000079512596e-02 -2.7614999562501907e-02 0.0000000000000000e+00  -9.6500003710389137e-03 -1.3518000021576881e-02 0.0000000000000000e+00  -1.0720999911427498e-02 -1.3584000058472157e-02 0.0000000000000000e+00  -6.2310001812875271e-03 7.3620001785457134e-03 0.0000000000000000e+00  -6.8000000901520252e-03 8.3109997212886810e-03 0.0000000000000000e+00  -7.1519999764859676e-03 9.1909999027848244e-03 0.0000000000000000e+00  -7.5309998355805874e-03 1.0138999670743942e-02 0.0000000000000000e+00  -2.0599999697878957e-04 -1.0699999984353781e-04 0.0000000000000000e+00  2.6940000243484974e-03 2.2420000750571489e-03 0.0000000000000000e+00  4.1999998502433300e-03 3.2979999668896198e-03 0.0000000000000000e+00  1.5210000565275550e-03 1.3399999588727951e-03 0.0000000000000000e+00  -5.0719999708235264e-03 5.4299999028444290e-03 0.0000000000000000e+00  -3.2609999179840088e-03 1.2720000231638551e-03 0.0000000000000000e+00  1.7729999963194132e-03 1.5549999661743641e-03 0.0000000000000000e+00  -3.0219999607652426e-03 1.5109999803826213e-03 0.0000000000000000e+00  -3.5059999208897352e-03 1.0270000202581286e-03 0.0000000000000000e+00  4.8270002007484436e-03 3.8089998997747898e-03 0.0000000000000000e+00  8.4549998864531517e-03 6.0220002196729183e-03 0.0000000000000000e+00  1.0007999837398529e-02 6.6709998063743114e-03 0.0000000000000000e+00  7.8800003975629807e-03 5.5350000038743019e-03 0.0000000000000000e+00  2.2386999800801277e-02 2.9460000805556774e-03 0.0000000000000000e+00  2.4234000593423843e-02 1.7829999560490251e-03 0.0000000000000000e+00  1.9902000203728676e-02 -1.7969999462366104e-03 0.0000000000000000e+00  1.5668999403715134e-02 9.4109997153282166e-03 0.0000000000000000e+00  2.2407999262213707e-02 1.2265999801456928e-02 0.0000000000000000e+00  2.5684000924229622e-02 1.3855000026524067e-02 0.0000000000000000e+00  2.4134000763297081e-02 1.2888000346720219e-02 0.0000000000000000e+00  2.3221999406814575e-02 1.2768999673426151e-02 0.0000000000000000e+00  2.0162999629974365e-02 1.1234999634325504e-02 0.0000000000000000e+00  2.8349999338388443e-02 1.5453999862074852e-02 0.0000000000000000e+00  3.0659999698400497e-02 1.7139000818133354e-02 0.0000000000000000e+00  2.8997000306844711e-02 1.5333999879658222e-02 0.0000000000000000e+00  1.4437999576330185e-02 2.3543000221252441e-02 0.0000000000000000e+00  1.1850000359117985e-02 2.0090000703930855e-02 0.0000000000000000e+00  1.1254999786615372e-02 2.2165000438690186e-02 0.0000000000000000e+00  2.6014000177383423e-02 3.9886999875307083e-02 0.0000000000000000e+00  2.4994999170303345e-02 3.7055999040603638e-02 0.0000000000000000e+00  2.5577999651432037e-02 4.1691999882459641e-02 0.0000000000000000e+00  2.5885999202728271e-02 7.5075000524520874e-02 0.0000000000000000e+00  2.3445000872015953e-02 8.3351999521255493e-02 0.0000000000000000e+00  2.3694999516010284e-02 8.1936001777648926e-02 0.0000000000000000e+00  -1.1332999914884567e-02 -6.0439999215304852e-03 0.0000000000000000e+00  1.0930000571534038e-03 3.1913999468088150e-02 0.0000000000000000e+00  -2.3139999248087406e-03 3.3047001808881760e-02 0.0000000000000000e+00  3.5260000731796026e-03 3.5615000873804092e-02 0.0000000000000000e+00  7.1569997817277908e-03 3.4418001770973206e-02 0.0000000000000000e+00  3.3529999200254679e-03 3.1068999320268631e-02 0.0000000000000000e+00  5.1739998161792755e-03 3.0015999451279640e-02 0.0000000000000000e+00  2.2469000890851021e-02 4.4589001685380936e-02 0.0000000000000000e+00  2.4660000577569008e-02 4.3299999088048935e-02 0.0000000000000000e+00  2.4879999458789825e-02 4.7839999198913574e-02 0.0000000000000000e+00  2.6248000562191010e-02 4.6661000698804855e-02 0.0000000000000000e+00  1.4155000448226929e-02 3.1727999448776245e-02 0.0000000000000000e+00  1.0137000121176243e-02 3.2552998512983322e-02 0.0000000000000000e+00  1.1882999911904335e-02 3.6084000021219254e-02 0.0000000000000000e+00  9.9390000104904175e-03 3.8407001644372940e-02 0.0000000000000000e+00  1.0521999560296535e-02 4.2174998670816422e-02 0.0000000000000000e+00  1.4720999635756016e-02 4.1884999722242355e-02 0.0000000000000000e+00  1.4647999778389931e-02 3.5055000334978104e-02 0.0000000000000000e+00  -9.8659001290798187e-02 -7.5121998786926270e-02 0.0000000000000000e+00  -9.9587999284267426e-02 -8.3480998873710632e-02 0.0000000000000000e+00  -1.0838799923658371e-01 -7.6472997665405273e-02 0.0000000000000000e+00  -1.0164400190114975e-01 -4.8866998404264450e-02 0.0000000000000000e+00  -9.8984003067016602e-02 -5.4483000189065933e-02 0.0000000000000000e+00  -1.0394799709320068e-01 -6.0006000101566315e-02 0.0000000000000000e+00  -9.6297003328800201e-02 -6.4961001276969910e-02 0.0000000000000000e+00  -2.1546000614762306e-02 -6.5117001533508301e-02 0.0000000000000000e+00  -7.6230000704526901e-03 -4.7731000930070877e-02 0.0000000000000000e+00  -1.1299000121653080e-02 -4.8471998423337936e-02 0.0000000000000000e+00  -2.9146000742912292e-02 -6.6426001489162445e-02 0.0000000000000000e+00  -6.3986003398895264e-02 -1.1613299697637558e-01 0.0000000000000000e+00  -9.9616996943950653e-02 -1.5002599358558655e-01 0.0000000000000000e+00  -1.0435300320386887e-01 -1.5676599740982056e-01 0.0000000000000000e+00  -1.1499500274658203e-01 -1.6220499575138092e-01 0.0000000000000000e+00  -3.827299