<?xml version="1.0"?>
<VTKFile type="UnstructuredGrid"  version="0.1"  >
<UnstructuredGrid>
<Piece  NumberOfPoints="6340" NumberOfCells="12376">
<Points>
<DataArray  type="Float64"  NumberOfComponents="3"  format="ascii">-0.0193680003285408 0.02080499939620495 0  -0.02017799951136112 0.02147700078785419 0  -0.0203699991106987 0.02047999948263168 0  -0.02106600068509579 0.02128800004720688 0  -0.01957800053060055 0.01988800056278706 0  -0.01923600025475025 0.02167900092899799 0  -0.01984599977731705 0.0224360004067421 0  -0.01936200074851513 0.02324100024998188 0  -0.02044299989938736 0.02324000000953674 0  -0.01875999942421913 0.02240199968218803 0  -0.007782999891787767 0.01871100068092346 0  -0.008457999676465988 0.01949699968099594 0  -0.008781000040471554 0.01855999976396561 0  -0.009463000111281872 0.01938300020992756 0  -0.02646300010383129 0.08050200343132019 0  -0.02741499990224838 0.08111599832773209 0  -0.02759500034153461 0.08032000064849854 0  -0.02733100019395351 0.0735900029540062 0  -0.02792000025510788 0.07447800040245056 0  -0.02817899920046329 0.0735509991645813 0  -0.02889999933540821 0.07415000349283218 0  -0.01254399958997965 0.09077499806880951 0  -0.01355099957436323 0.090768001973629 0  -0.01303999964147806 0.08990500122308731 0  -0.0205329991877079 0.08566900342702866 0  -0.01952099986374378 0.08566000312566757 0  -0.02005200088024139 0.08650899678468704 0  -0.02000300027430058 0.084818996489048 0  -0.02254699915647507 0.02494800090789795 0  -0.02151400037109852 0.02492699958384037 0  -0.02203500084578991 0.02581500075757504 0  -0.02250799909234047 0.02670500054955482 0  -0.02308899909257889 0.02584999985992908 0  -0.02099299989640713 0.025798000395298 0  -0.02047399990260601 0.0249249991029501 0  -0.01942499913275242 0.02492599934339523 0  -0.01995600014925003 0.02579000033438206 0  -0.02201800048351288 0.02403800003230572 0  -0.02315299957990646 0.02412699908018112 0  -0.02235000021755695 0.02277999930083752 0  -0.02172599919140339 0.0220550000667572 0  -0.02147999964654446 0.02314599975943565 0  -0.02082699909806252 0.02231799997389317 0  -0.01582599990069866 0.02213799953460693 0  -0.01634000055491924 0.02125200070440769 0  -0.01528999954462051 0.02128800004720688 0  -0.01680500060319901 0.02220099978148937 0  -0.01782700046896935 0.02221000008285046 0  -0.01733100041747093 0.02308899909257889 0  0.04264099895954132 0.08425699919462204 0  0.04236200079321861 0.08333999663591385 0  0.04367100074887276 0.08367899805307388 0  0.04491500183939934 0.09601599723100662 0  0.04570899903774261 0.09643299877643585 0  0.04469799995422363 0.09692399948835373 0  0.02841600030660629 0.1048329994082451 0  0.02849600091576576 0.1038789972662926 0  0.02941199950873852 0.1043490022420883 0  0.02750100009143353 0.1052770018577576 0  0.02755500003695488 0.1041190028190613 0  -0.00446399999782443 0.09964399784803391 0  -0.003443999914452434 0.09965600073337555 0  -0.00395999988541007 0.1005280017852783 0  -0.002940000034868717 0.1005370020866394 0  -0.01712699979543686 0.1010409966111183 0  -0.01764499954879284 0.1002940014004707 0  -0.01645000092685223 0.1003940030932426 0  -0.01815499924123287 0.1012599989771843 0  -0.01197199989110231 0.1074210032820702 0  -0.01208500005304813 0.1083720028400421 0  -0.01285799965262413 0.1075949966907501 0  -0.009037000127136707 0.09870299696922302 0  -0.008018000051379204 0.09871699661016464 0  -0.008535999804735184 0.099590003490448 0  -0.01005899999290705 0.09868499636650085 0  -0.009541000239551067 0.09781400114297867 0  -0.01056199986487627 0.09779699891805649 0  -0.01264199987053871 0.1012319996953011 0  -0.01312099955976009 0.1020679995417595 0  -0.01370299980044365 0.1012020036578178 0  -0.01160699967294931 0.09953200072050095 0  -0.01264499966055155 0.09951899945735931 0  -0.01211099978536367 0.09865599870681763 0  0.01334999967366457 0.09515900164842606 0  0.01435699965804815 0.09516000002622604 0  0.01385299954563379 0.09602300077676773 0  0.007840000092983246 0.07873199880123138 0  0.008337999694049358 0.07786300033330917 0  0.008844999596476555 0.07873199880123138 0  -0.00749000022187829 0.01786999963223934 0  -0.006674999836832285 0.01812900044023991 0  -0.008352999575436115 0.01770099997520447 0  -0.009254000149667263 0.01752400025725365 0  -0.01288000028580427 0.01724999956786633 0  -0.01314300019294024 0.01830100081861019 0  -0.01375100016593933 0.01739699952304363 0  -0.01231900043785572 0.01816200092434883 0  -0.01234699971973896 0.019166000187397 0  -0.01150400005280972 0.01837999932467937 0  -0.01189900003373623 0.0220589991658926 0  -0.01238000020384789 0.0210999995470047 0  -0.01143800001591444 0.02118800021708012 0  -0.01097400020807981 0.02037400007247925 0  -0.01042800024151802 0.02122999913990498 0  -0.01191500015556812 0.02018499933183193 0  -0.01285700034350157 0.02202999964356422 0  -0.01429599989205599 0.02120300009846687 0  -0.01480599958449602 0.02212999947369099 0  -0.01381999999284744 0.02206699922680855 0  -0.008956000208854675 0.02033899910748005 0  -0.01084200013428926 0.03093300014734268 0  -0.01134699955582619 0.03005699999630451 0  -0.01034399960190058 0.03005100041627884 0  -0.005367999896407127 0.03002000041306019 0  -0.005861000157892704 0.03090200014412403 0  -0.006360999774187803 0.03002599999308586 0  -0.0079950001090765 0.02046200074255466 0  -0.005514999851584435 0.02006600052118301 0  -0.006490999832749367 0.01985299959778786 0  -0.005716000217944384 0.0192280001938343 0  -0.005795000120997429 0.01840999908745289 0  -0.004819999914616346 0.0187199991196394 0  0.04661900177598 0.09199099987745285 0  0.04751000180840492 0.09155900031328201 0  0.04720399901270866 0.092678003013134 0  0.04614799842238426 0.09276899695396423 0  0.01667599938809872 0.05952300131320953 0  0.01769400015473366 0.05948999896645546 0  0.01720000058412552 0.06035999953746796 0  0.03052300028502941 0.04526799917221069 0  0.03102000057697296 0.04424300044775009 0  0.03146100044250488 0.0449960008263588 0  0.03257900103926659 0.04956600069999695 0  0.03350799903273582 0.04893999919295311 0  0.03385699912905693 0.0497019998729229 0  0.03232400119304657 0.0530019998550415 0  0.03135199844837189 0.05302999913692474 0  0.03189500048756599 0.05212400108575821 0  0.03145100176334381 0.05128299817442894 0  0.03248199820518494 0.05122299864888191 0  0.03089199960231781 0.05217500030994415 0  0.03035799972712994 0.05307000130414963 0  0.03040199913084507 0.0513559989631176 0  0.02986199967563152 0.05056099966168404 0  0.0293550007045269 0.05141700059175491 0  0.0288079995661974 0.05061100050806999 0  0.04417499899864197 0.09433499723672867 0  0.0431319996714592 0.09433700144290924 0  0.04364899918437004 0.09348899871110916 0  0.04262499883770943 0.09345699846744537 0  0.008484999649226665 0.02541200071573257 0  0.009277000091969967 0.02586599998176098 0  0.00848700013011694 0.02646300010383129 0  0.009349999949336052 0.02681300044059753 0  0.02831099927425385 0.05147000029683113 0  0.02422400005161762 0.05331600084900856 0  0.02372699975967407 0.05418200045824051 0  0.02319999970495701 0.05334899947047234 0  0.02475100010633469 0.05414700135588646 0  0.03084900043904781 0.05392799898982048 0  0.01984599977731705 0.03628699854016304 0  0.01892999932169914 0.03613400086760521 0  0.01937099918723106 0.03526199981570244 0  0.01408299989998341 0.04137900099158287 0  0.01309700030833483 0.04137599840760231 0  0.01358999963849783 0.04050400108098984 0  0.01260299980640411 0.04050200060009956 0  0.01210999954491854 0.04137299954891205 0  0.01210600044578314 0.0396290011703968 0  0.01309600006788969 0.03963100165128708 0  0.01358999963849783 0.04225099831819534 0  -0.02872099913656712 0.07505699992179871 0  -0.02757799997925758 0.07532300055027008 0  -0.02855700068175793 0.07588700205087662 0  -0.02693100087344646 0.07450100034475327 0  -0.02648499980568886 0.07534100115299225 0  -0.02542600035667419 0.07536499947309494 0  -0.02586800046265125 0.07620900124311447 0  -0.02488300018012524 0.07452300190925598 0  -0.02438800036907196 0.07537399977445602 0  -0.02486900053918362 0.0762220025062561 0  -0.02903999947011471 0.07320699840784073 0  -0.01956200040876865 0.08734600245952606 0  -0.02057899907231331 0.08735399693250656 0  -0.01811699941754341 0.09682399779558182 0  -0.01913000084459782 0.09685900062322617 0  -0.01861800067126751 0.0959789976477623 0  -0.01962600089609623 0.09601800143718719 0  -0.01911499910056591 0.0951320007443428 0  -0.01673500053584576 0.09954600036144257 0  -0.01575399935245514 0.09954000264406204 0  -0.01535299979150295 0.1003919988870621 0  -0.01404600031673908 0.0898979976773262 0  -0.01189099997282028 0.08305700123310089 0  -0.01088299974799156 0.08304999768733978 0  -0.01140899956226349 0.08390200138092041 0  -0.01093299966305494 0.08475200086832047 0  -0.01040599960833788 0.08389700204133987 0  -0.01587699912488461 0.08139699697494507 0  -0.01635999977588654 0.08055099844932556 0  -0.01535299979150295 0.08054500073194504 0  -0.01434599980711937 0.08053799718618393 0  -0.01482999976724386 0.07969000190496445 0  -0.01899399980902672 0.08480899780988693 0  -0.01846699975430965 0.08395899832248688 0  -0.01947499997913837 0.08396899700164795 0  -0.02048500068485737 0.08398000150918961 0  -0.02538600005209446 0.07707799971103668 0  -0.02583999931812286 0.07965599745512009 0  -0.02540200017392635 0.08049800246953964 0  -0.02357799932360649 0.02483999915421009 0  -0.02398999966681004 0.02552999928593636 0  -0.02429799921810627 0.02623599953949451 0  -0.02462900057435036 0.02699599973857403 0  -0.02352700009942055 0.02678499929606915 0  -0.01993300020694733 0.02407800033688545 0  -0.01887300051748753 0.02406699955463409 0  -0.0209950003772974 0.02405799925327301 0  -0.02274000085890293 0.02343299984931946 0  -0.01727000065147877 0.01842500083148479 0  -0.01689100079238415 0.01919100061058998 0  -0.01806999929249287 0.01875999942421913 0  -0.01644800044596195 0.01807999983429909 0  -0.01830900087952614 0.02320200018584728 0  -0.01631800085306168
[...]
<PointData  Vectors="velocity"> 
<DataArray  type="Float64"  Name="velocity"  NumberOfComponents="3" format="ascii">1.6220000106841326e-03 1.0160000529140234e-03 0.0000000000000000e+00  1.2280000373721123e-03 7.4799999129027128e-04 0.0000000000000000e+00  -4.5329998247325420e-03 2.2670000325888395e-03 0.0000000000000000e+00  -4.0020002052187920e-03 2.7970001101493835e-03 0.0000000000000000e+00  -5.0530000589787960e-03 2.0059999078512192e-03 0.0000000000000000e+00  2.7890000492334366e-03 1.8269999418407679e-03 0.0000000000000000e+00  2.5500000920146704e-03 1.6700000269338489e-03 0.0000000000000000e+00  3.8719999138265848e-03 2.4500000290572643e-03 0.0000000000000000e+00  2.2609999869018793e-03 1.4690000098198652e-03 0.0000000000000000e+00  4.2989999055862427e-03 2.7439999394118786e-03 0.0000000000000000e+00  8.3539998158812523e-03 3.6710000131279230e-03 0.0000000000000000e+00  1.8384000286459923e-02 8.1399995833635330e-03 0.0000000000000000e+00  8.9109996333718300e-03 3.9960001595318317e-03 0.0000000000000000e+00  1.6256000846624374e-02 7.6669999398291111e-03 0.0000000000000000e+00  -9.1450000181794167e-03 -1.0541999712586403e-02 0.0000000000000000e+00  -3.1999999191612005e-03 -1.7598999664187431e-02 0.0000000000000000e+00  -2.0250000525265932e-03 -1.7129000276327133e-02 0.0000000000000000e+00  -1.2161999940872192e-02 -3.0657000839710236e-02 0.0000000000000000e+00  -1.0999999940395355e-02 -2.2329999133944511e-02 0.0000000000000000e+00  -9.6020000055432320e-03 -2.2352999076247215e-02 0.0000000000000000e+00  4.5329998247325420e-03 -1.2844000011682510e-02 0.0000000000000000e+00  -1.2256900221109390e-01 -6.8542003631591797e-02 0.0000000000000000e+00  -1.0506799817085266e-01 -5.1716998219490051e-02 0.0000000000000000e+00  -1.2185499817132950e-01 -7.5554996728897095e-02 0.0000000000000000e+00  -3.7785999476909637e-02 -2.9838999733328819e-02 0.0000000000000000e+00  -4.8236001282930374e-02 -4.1538000106811523e-02 0.0000000000000000e+00  -3.9776999503374100e-02 -2.5890000164508820e-02 0.0000000000000000e+00  -4.4585999101400375e-02 -4.4270001351833344e-02 0.0000000000000000e+00  6.4899999415501952e-04 3.4699999378062785e-04 0.0000000000000000e+00  1.5360000543296337e-03 9.3600002583116293e-04 0.0000000000000000e+00  8.2900002598762512e-04 3.9599998854100704e-04 0.0000000000000000e+00  1.6700000560376793e-04 -8.0999998317565769e-05 0.0000000000000000e+00  1.8200000340584666e-04 -1.8000000636675395e-05 0.0000000000000000e+00  1.9229999743402004e-03 1.0580000234767795e-03 0.0000000000000000e+00  2.7069998905062675e-03 1.6260000411421061e-03 0.0000000000000000e+00  4.2329998686909676e-03 2.4349999148398638e-03 0.0000000000000000e+00  3.2949999440461397e-03 1.7760000191628933e-03 0.0000000000000000e+00  9.3999999808147550e-04 5.7899998500943184e-04 0.0000000000000000e+00  -2.6519999373704195e-03 4.1479999199509621e-03 0.0000000000000000e+00  -3.0219999607652426e-03 3.7779998965561390e-03 0.0000000000000000e+00  -3.4980000928044319e-03 3.3019999973475933e-03 0.0000000000000000e+00  1.0379999876022339e-03 6.4500002190470695e-04 0.0000000000000000e+00  1.1790000135079026e-03 7.3299999348819256e-04 0.0000000000000000e+00  1.0478000156581402e-02 6.0490001924335957e-03 0.0000000000000000e+00  8.1439996138215065e-03 4.9319998361170292e-03 0.0000000000000000e+00  1.0347000323235989e-02 5.9620002284646034e-03 0.0000000000000000e+00  8.1599997356534004e-03 4.8639997839927673e-03 0.0000000000000000e+00  5.9210001491010189e-03 3.6720000207424164e-03 0.0000000000000000e+00  7.6709999702870846e-03 4.4940002262592316e-03 0.0000000000000000e+00  5.9650000184774399e-03 2.1299999207258224e-02 0.0000000000000000e+00  6.9450000301003456e-03 2.3547999560832977e-02 0.0000000000000000e+00  3.3408999443054199e-02 -1.1092999950051308e-02 0.0000000000000000e+00  7.0589999668300152e-03 1.9478999078273773e-02 0.0000000000000000e+00  5.2499999292194843e-03 1.7449999228119850e-02 0.0000000000000000e+00  4.4909999705851078e-03 2.0662000402808189e-02 0.0000000000000000e+00  -7.7160999178886414e-02 -2.0571000874042511e-02 0.0000000000000000e+00  -7.4950002133846283e-02 -1.4066999778151512e-02 0.0000000000000000e+00  -7.0626996457576752e-02 -1.1540999636054039e-02 0.0000000000000000e+00  -8.2552999258041382e-02 -2.8885999694466591e-02 0.0000000000000000e+00  -8.0770999193191528e-02 -2.1601999178528786e-02 0.0000000000000000e+00  -4.3443001806735992e-02 -7.8685000538825989e-02 0.0000000000000000e+00  -5.7744998484849930e-02 -9.4585999846458435e-02 0.0000000000000000e+00  -3.1684998422861099e-02 -7.4290998280048370e-02 0.0000000000000000e+00  -4.5568000525236130e-02 -8.9571997523307800e-02 0.0000000000000000e+00  5.4786998778581619e-02 7.2003997862339020e-02 0.0000000000000000e+00  5.3194001317024231e-02 7.2171002626419067e-02 0.0000000000000000e+00  5.3376000374555588e-02 7.2801999747753143e-02 0.0000000000000000e+00  -3.4790001809597015e-02 -2.5422999635338783e-02 0.0000000000000000e+00  5.0498001277446747e-02 5.1353000104427338e-02 0.0000000000000000e+00  -4.0277000516653061e-02 -1.4252999797463417e-02 0.0000000000000000e+00  -4.0546000003814697e-02 -1.5869000926613808e-02 0.0000000000000000e+00  -7.8769996762275696e-03 -8.3710001781582832e-03 0.0000000000000000e+00  -2.0072000101208687e-02 -2.7039000764489174e-02 0.0000000000000000e+00  6.7010000348091125e-03 -6.9670001976191998e-03 0.0000000000000000e+00  2.6020000223070383e-03 8.3290003240108490e-03 0.0000000000000000e+00  -2.0744999870657921e-02 -1.0625000111758709e-02 0.0000000000000000e+00  -9.1359997168183327e-03 7.2240000590682030e-03 0.0000000000000000e+00  5.2570000290870667e-02 5.6791000068187714e-02 0.0000000000000000e+00  5.7468000799417496e-02 6.1606001108884811e-02 0.0000000000000000e+00  5.4786998778581619e-02 6.4906001091003418e-02 0.0000000000000000e+00  3.2660998404026031e-02 3.9009999483823776e-02 0.0000000000000000e+00  3.8614999502897263e-02 5.0048001110553741e-02 0.0000000000000000e+00  2.1308999508619308e-02 3.7845999002456665e-02 0.0000000000000000e+00  -2.3650999367237091e-01 -6.4561001956462860e-02 0.0000000000000000e+00  -2.2710399329662323e-01 -5.1135998219251633e-02 0.0000000000000000e+00  -2.2351300716400146e-01 -6.4303003251552582e-02 0.0000000000000000e+00  -6.4608000218868256e-02 -6.3988998532295227e-02 0.0000000000000000e+00  -4.8222001641988754e-02 -4.6790000051259995e-02 0.0000000000000000e+00  -6.0109000653028488e-02 -4.1124001145362854e-02 0.0000000000000000e+00  -1.6620999202132225e-02 -4.5329998247325420e-03 0.0000000000000000e+00  -1.7542999237775803e-02 -4.9939998425543308e-03 0.0000000000000000e+00  -1.5413000248372555e-02 -3.8079998921602964e-03 0.0000000000000000e+00  -1.4152999967336655e-02 -3.0519999563694000e-03 0.0000000000000000e+00  -1.0576999746263027e-02 -7.5599999399855733e-04 0.0000000000000000e+00  4.8509999178349972e-03 2.0049999002367258e-03 0.0000000000000000e+00  -9.5870001241564751e-03 -5.0800002645701170e-04 0.0000000000000000e+00  6.0000000521540642e-03 2.6620000135153532e-03 0.0000000000000000e+00  9.0680001303553581e-03 4.5449999161064625e-03 0.0000000000000000e+00  8.1799998879432678e-03 3.9420002140104771e-03 0.0000000000000000e+00  1.8519999459385872e-02 9.0859998017549515e-03 0.0000000000000000e+00  1.4503999613225460e-02 7.4669998139142990e-03 0.0000000000000000e+00  1.6728999093174934e-02 8.3039999008178711e-03 0.0000000000000000e+00  1.5461999922990799e-02 7.6970001682639122e-03 0.0000000000000000e+00  1.9111000001430511e-02 8.9990003034472466e-03 0.0000000000000000e+00  1.2888999655842781e-02 6.6129998303949833e-03 0.0000000000000000e+00  1.6463000327348709e-02 8.4549998864531517e-03 0.0000000000000000e+00  1.1598999612033367e-02 6.3729998655617237e-03 0.0000000000000000e+00  1.2982999905943871e-02 7.2340001352131367e-03 0.0000000000000000e+00  1.4925000257790089e-02 7.9960003495216370e-03 0.0000000000000000e+00  2.1084999665617943e-02 9.4339996576309204e-03 0.0000000000000000e+00  3.9762999862432480e-02 5.8100000023841858e-04 0.0000000000000000e+00  3.6157999187707901e-02 1.4659999869763851e-03 0.0000000000000000e+00  4.1124999523162842e-02 5.4990001954138279e-03 0.0000000000000000e+00  5.9020001441240311e-02 3.0703000724315643e-02 0.0000000000000000e+00  6.0784000903367996e-02 2.8075000271201134e-02 0.0000000000000000e+00  5.6685000658035278e-02 2.6279000565409660e-02 0.0000000000000000e+00  2.4269999936223030e-02 1.0362000204622746e-02 0.0000000000000000e+00  2.1519999951124191e-02 7.8149996697902679e-03 0.0000000000000000e+00  2.0752999931573868e-02 8.2999998703598976e-03 0.0000000000000000e+00  8.7599996477365494e-03 3.5620001144707203e-03 0.0000000000000000e+00  -1.8540000542998314e-02 -5.4919999092817307e-03 0.0000000000000000e+00  -1.9642999395728111e-02 -6.0439999215304852e-03 0.0000000000000000e+00  7.3219998739659786e-03 1.0123999789357185e-02 0.0000000000000000e+00  5.9989998117089272e-03 7.2599998675286770e-03 0.0000000000000000e+00  7.0960000157356262e-03 9.6760001033544540e-03 0.0000000000000000e+00  8.2369996234774590e-03 1.2699999846518040e-02 0.0000000000000000e+00  1.0575000196695328e-01 1.0781800001859665e-01 0.0000000000000000e+00  1.0254500061273575e-01 1.1562000215053558e-01 0.0000000000000000e+00  1.0034199804067612e-01 1.1433299630880356e-01 0.0000000000000000e+00  2.1586000919342041e-02 3.5314001142978668e-02 0.0000000000000000e+00  -1.6465999186038971e-02 -2.1231999620795250e-02 0.0000000000000000e+00  -1.4995000325143337e-02 -2.1967999637126923e-02 0.0000000000000000e+00  2.4813000112771988e-02 5.0615999847650528e-02 0.0000000000000000e+00  -8.7639996781945229e-03 -2.3685000836849213e-02 0.0000000000000000e+00  -7.8159999102354050e-03 -2.3922000080347061e-02 0.0000000000000000e+00  3.4843001514673233e-02 7.9678997397422791e-02 0.0000000000000000e+00  4.3880999088287354e-02 8.6583003401756287e-02 0.0000000000000000e+00  3.8338001817464828e-02 7.4904002249240875e-02 0.0000000000000000e+00  3.9032001048326492e-02 7.2180002927780151e-02 0.0000000000000000e+00  3.1390998512506485e-02 6.3344001770019531e-02 0.0000000000000000e+00  4.5763000845909119e-02 8.3314999938011169e-02 0.0000000000000000e+00  5.1676001399755478e-02 9.3887001276016235e-02 0.0000000000000000e+00  4.6946998685598373e-02 8.0931000411510468e-02 0.0000000000000000e+00  4.8461999744176865e-02 7.8870996832847595e-02 0.0000000000000000e+00  5.4790001362562180e-02 8.8661998510360718e-02 0.0000000000000000e+00  5.6471001356840134e-02 8.6283996701240540e-02 0.0000000000000000e+00  9.8750004544854164e-03 2.0708000287413597e-02 0.0000000000000000e+00  1.0495999827980995e-02 2.4483999237418175e-02 0.0000000000000000e+00  1.0491999797523022e-02 2.1932000294327736e-02 0.0000000000000000e+00  1.0909000411629677e-02 2.6046000421047211e-02 0.0000000000000000e+00  -2.7197999879717827e-02 -6.0439999215304852e-03 0.0000000000000000e+00  -2.7197999879717827e-02 -6.0439999215304852e-03 0.0000000000000000e+00  6.5819998271763325e-03 3.3120000734925270e-03 0.0000000000000000e+00  7.4169998988509178e-03 3.6539998836815357e-03 0.0000000000000000e+00  6.2247999012470245e-02 9.4948001205921173e-02 0.0000000000000000e+00  8.8556997478008270e-02 1.1583700031042099e-01 0.0000000000000000e+00  9.1049998998641968e-02 1.1950899660587311e-01 0.0000000000000000e+00  9.3258999288082123e-02 1.1521299928426743e-01 0.0000000000000000e+00  8.6318001151084900e-02 1.1982399970293045e-01 0.0000000000000000e+00  4.6939998865127563e-02 9.8376996815204620e-02 0.0000000000000000e+00  3.6279000341892242e-02 2.2942999377846718e-02 0.0000000000000000e+00  4.0513999760150909e-02 2.4459000676870346e-02 0.0000000000000000e+00  3.1371999531984329e-02 1.8624000251293182e-02 0.0000000000000000e+00  1.0194899886846542e-01 5.2230998873710632e-02 0.0000000000000000e+00  1.0497900098562241e-01 5.1093999296426773e-02 0.0000000000000000e+00  9.9152997136116028e-02 4.9343999475240707e-02 0.0000000000000000e+00  1.0165800154209137e-01 4.8898998647928238e-02 0.0000000000000000e+00  1.0751300305128098e-01 5.0067998468875885e-02 0.0000000000000000e+00  9.8217003047466278e-02 4.6666998416185379e-02 0.0000000000000000e+00  9.4940997660160065e-02 4.6882998198270798e-02 0.0000000000000000e+00  1.0685700178146362e-01 5.3653001785278320e-02 0.0000000000000000e+00  3.7660000380128622e-03 -1.3611000031232834e-02 0.0000000000000000e+00  -1.1009999550879002e-02 -2.2098999470472336e-02 0.0000000000000000e+00  3.0640000477433205e-03 -1.4312000013887882e-02 0.0000000000000000e+00  -1.4148999936878681e-02 -3.1422998756170273e-02 0.0000000000000000e+00  -1.6344999894499779e-02 -3.3181998878717422e-02 0.0000000000000000e+00  -2.1114999428391457e-02 -4.4987998902797699e-02 0.0000000000000000e+00  -1.6464000567793846e-02 -3.5176001489162445e-02 0.0000000000000000e+00  -2.2592000663280487e-02 -5.5381998419761658e-02 0.0000000000000000e+00  -2.6234000921249390e-02 -5.8244001120328903e-02 0.0000000000000000e+00  -2.2601999342441559e-02 -4.7228001058101654e-02 0.0000000000000000e+00  4.7969999723136425e-03 -1.2315999716520309e-02 0.0000000000000000e+00  -4.0151000022888184e-02 -2.1725000813603401e-02 0.0000000000000000e+00  -2.8736000880599022e-02 -1.1510999873280525e-02 0.0000000000000000e+00  3.3876001834869385e-02 6.5871000289916992e-02 0.0000000000000000e+00  3.7135999649763107e-02 6.5154001116752625e-02 0.0000000000000000e+00  2.9170000925660133e-02 6.1430998146533966e-02 0.0000000000000000e+00  3.4240998327732086e-02 6.1714999377727509e-02 0.0000000000000000e+00  1.9122000783681870e-02 5.5681999772787094e-02 0.0000000000000000e+00  5.0365999341011047e-02 7.2212003171443939e-02 0.0000000000000000e+00  4.9251001328229904e-02 7.0950001478195190e-02 0.0000000000000000e+00  5.2629999816417694e-02 7.0225000381469727e-02 0.0000000000000000e+00  -1.0506699979305267e-01 -5.8083001524209976e-02 0.0000000000000000e+00  -1.3118900358676910e-01 -1.8947799503803253e-01 0.0000000000000000e+00  -1.3953499495983124e-01 -2.0345300436019897e-01 0.0000000000000000e+00  -1.4195600152015686e-01 -1.8907099962234497e-01 0.0000000000000000e+00  -1.5308000147342682e-01 -1.8761999905109406e-01 0.0000000000000000e+00  -1.5051700174808502e-01 -2.0298300683498383e-01 0.0000000000000000e+00  -9.1682001948356628e-02 -1.4369599521160126e-01 0.0000000000000000e+00  -8.5514999926090240e-02 -1.4328999817371368e-01 0.0000000000000000e+00  -9.3501999974250793e-02 -1.5912699699401855e-01 0.0000000000000000e+00  -1.0103199630975723e-01 -1.7422099411487579e-01 0.0000000000000000e+00  -9.3736000359058380e-02 -1.7309099435806274e-01 0.0000000000000000e+00  -5.5378001183271408e-02 -5.7955000549554825e-02 0.0000000000000000e+00  -6.4313001930713654e-02 -7.5487002730369568e-02 0.0000000000000000e+00  -5.1940001547336578e-02 -6.0006998479366302e-02 0.0000000000000000e+00  -4.1313000023365021e-02 -4.6741001307964325e-02 0.0000000000000000e+00  -1.8862999975681305e-02 -3.6416999995708466e-02 0.0000000000000000e+00  -1.2470999732613564e-02 -1.8990999087691307e-02 0.0000000000000000e+00  -1.3867000117897987e-02 -1.8921000882983208e-02 0.0000000000000000e+00  -2.4560000747442245e-03 4.3429997749626637e-03 0.0000000000000000e+00  -2.2670000325888395e-03 4.5329998247325420e-03 0.0000000000000000e+00  -2.0900000818073750e-03 4.7089997678995132e-03 0.0000000000000000e+00  -1.9010000396519899e-03 4.8989998176693916e-03 0.0000000000000000e+00  -1.3600000238511711e-04 -2.3200000578071922e-04 0.0000000000000000e+00  3.3319999929517508e-03 2.0709999371320009e-03 0.0000000000000000e+00  5.0650001503527164e-03 3.0139998998492956e-03 0.0000000000000000e+00  1.9369999645277858e-03 1.2359999818727374e-03 0.0000000000000000e+00  -2.8429999947547913e-03 3.9570000953972340e-03 0.0000000000000000e+00  -6.5219998359680176e-03 1.0329999495297670e-03 0.0000000000000000e+00  2.6340000331401825e-03 1.4590000500902534e-03 0.0000000000000000e+00  -6.0439999215304852e-03 1.5109999803826213e-03 0.0000000000000000e+00  -7.0130000822246075e-03 5.4199999431148171e-04 0.0000000000000000e+00  5.7299998588860035e-03 3.4789999481290579e-03 0.0000000000000000e+00  1.0009000077843666e-02 5.6599997915327549e-03 0.0000000000000000e+00  1.1779000051319599e-02 6.2239998951554298e-03 0.0000000000000000e+00  9.2669995501637459e-03 5.0860000774264336e-03 0.0000000000000000e+00  3.4412000328302383e-02 -3.4620000515133142e-03 0.0000000000000000e+00  3.7526000291109085e-02 -5.2910000085830688e-03 0.0000000000000000e+00  3.2024998217821121e-02 -9.1070001944899559e-03 0.0000000000000000e+00  2.0659999921917915e-02 9.5859998837113380e-03 0.0000000000000000e+00  3.0082000419497490e-02 1.2187000364065170e-02 0.0000000000000000e+00  3.4882001578807831e-02 1.3795999810099602e-02 0.0000000000000000e+00  3.1805001199245453e-02 1.2205000035464764e-02 0.0000000000000000e+00  3.2184999436140060e-02 1.3402000069618225e-02 0.0000000000000000e+00  2.7518000453710556e-02 1.1584999971091747e-02 0.0000000000000000e+00  3.9090000092983246e-02 1.5576999634504318e-02 0.0000000000000000e+00  4.2642999440431595e-02 1.7459999769926071e-02 0.0000000000000000e+00  3.9427999407052994e-02 1.4190999791026115e-02 0.0000000000000000e+00  6.8169999867677689e-03 1.1331000365316868e-02 0.0000000000000000e+00  4.9530002288520336e-03 9.4680003821849823e-03 0.0000000000000000e+00  5.2669998258352280e-03 1.1880000121891499e-02 0.0000000000000000e+00  9.2200003564357758e-03 2.2676000371575356e-02 0.0000000000000000e+00  9.8780002444982529e-03 2.0617999136447906e-02 0.0000000000000000e+00  9.9719995632767677e-03 2.5402000173926353e-02 0.0000000000000000e+00  -6.8370001390576363e-03 6.4530998468399048e-02 0.0000000000000000e+00  -1.1893000453710556e-02 7.4212998151779175e-02 0.0000000000000000e+00  -9.9050002172589302e-03 7.2535000741481781e-02 0.0000000000000000e+00  3.1730998307466507e-02 -1.1332999914884567e-02 0.0000000000000000e+00  1.8289999570697546e-03 2.6397999376058578e-02 0.0000000000000000e+00  -1.0199999815085903e-04 2.9014000669121742e-02 0.0000000000000000e+00  4.5449999161064625e-03 2.8505999594926834e-02 0.0000000000000000e+00  6.2970002181828022e-03 2.5816999375820160e-02 0.0000000000000000e+00  3.0730001162737608e-03 2.4586999788880348e-02 0.0000000000000000e+00  3.9329999126493931e-03 2.2710999473929405e-02 0.0000000000000000e+00  1.0896000079810619e-02 3.0505999922752380e-02 0.0000000000000000e+00  1.0648000054061413e-02 2.8062999248504639e-02 0.0000000000000000e+00  1.0204999707639217e-02 3.3038001507520676e-02 0.0000000000000000e+00  9.7939996048808098e-03 3.0648000538349152e-02 0.0000000000000000e+00  8.6150001734495163e-03 2.0011000335216522e-02 0.0000000000000000e+00  7.3730000294744968e-03 2.2636000066995621e-02 0.0000000000000000e+00  8.5049998015165329e-03 2.5613000616431236e-02 0.0000000000000000e+00  7.7379997819662094e-03 2.8800999745726585e-02 0.0000000000000000e+00  8.1890001893043518e-03 3.2405000180006027e-02 0.0000000000000000e+00  9.7500002011656761e-03 3.0426999554038048e-02 0.0000000000000000e+00  9.2439996078610420e-03 2.3184999823570251e-02 0.0000000000000000e+00  -8.9635998010635376e-02 -4.6530999243259430e-02 0.0000000000000000e+00  -9.0791001915931702e-02 -5.3913000971078873e-02 0.0000000000000000e+00  -9.4278998672962189e-02 -4.9846000969409943e-02 0.0000000000000000e+00  -8.7058998644351959e-02 -2.6513999328017235e-02 0.0000000000000000e+00  -8.4491997957229614e-02 -3.0450999736785889e-02 0.0000000000000000e+00  -8.9059002697467804e-02 -3.5783000290393829e-02 0.0000000000000000e+00  -8.6801998317241669e-02 -3.7735998630523682e-02 0.0000000000000000e+00  -1.6457999125123024e-02 -4.2977999895811081e-02 0.0000000000000000e+00  5.6059998460114002e-03 -2.3341000080108643e-02 0.0000000000000000e+00  -4.6580000780522823e-03 -2.5055000558495522e-02 0.0000000000000000e+00  -3.2869998365640640e-02 -4.5921999961137772e-02 0.0000000000000000e+00  -7.4878998100757599e-02 -9.9982000887393951e-02 0.0000000000000000e+00  -1.0365799814462662e-01 -1.3513599336147308e-01 0.0000000000000000e+00  -1.1698800325393677e-01 -1.4331899583339691e-01 0.0000000000000000e+00  -1.3119199872016907e-01 -1.4905199408531189e-01 0.0000000000000000e+00  