<?xml version="1.0"?>
<VTKFile type="UnstructuredGrid"  version="0.1"  >
<UnstructuredGrid>
<Piece  NumberOfPoints="6340" NumberOfCells="12376">
<Points>
<DataArray  type="Float64"  NumberOfComponents="3"  format="ascii">-0.01938199996948242 0.02081399969756603 0  -0.01998800039291382 0.02145100012421608 0  -0.02023000083863735 0.02047999948263168 0  -0.02070399932563305 0.02117599919438362 0  -0.01962400041520596 0.01989799924194813 0  -0.01920799911022186 0.02168500050902367 0  -0.01964000053703785 0.02239999920129776 0  -0.0191859994083643 0.02321900054812431 0  -0.02003699913620949 0.02310200035572052 0  -0.01876199990510941 0.02240999974310398 0  -0.009092999622225761 0.01767800003290176 0  -0.009693999774754047 0.01858700066804886 0  -0.0100299995392561 0.01765000075101852 0  -0.01063700020313263 0.01860000006854534 0  -0.02414399944245815 0.07211700081825256 0  -0.02503300085663795 0.07241900265216827 0  -0.0251850001513958 0.07165999710559845 0  -0.02450300008058548 0.0658859983086586 0  -0.02511700056493282 0.06650400161743164 0  -0.02527900040149689 0.06563500314950943 0  -0.02598999999463558 0.06597000360488892 0  -0.01188400015234947 0.08427999913692474 0  -0.01273399963974953 0.08408000320196152 0  -0.01218700036406517 0.08351200073957443 0  -0.01858399994671345 0.07831099629402161 0  -0.01765299960970879 0.07855600118637085 0  -0.0181450005620718 0.07916200160980225 0  -0.01809800043702126 0.0776979997754097 0  -0.02150800079107285 0.02438499964773655 0  -0.02072199992835522 0.024575000628829 0  -0.02102899923920631 0.0252739991992712 0  -0.0212980005890131 0.02598500065505505 0  -0.0218299999833107 0.02509200014173985 0  -0.02023500017821789 0.02546899951994419 0  -0.01990900002419949 0.02470600046217442 0  -0.01908300071954727 0.02481899969279766 0  -0.01942300051450729 0.02558499947190285 0  -0.02119800075888634 0.02366700023412704 0  -0.0220550000667572 0.02351799979805946 0  -0.02157999947667122 0.02246000058948994 0  -0.02115499973297119 0.02183599956333637 0  -0.02086200006306171 0.022902000695467 0  -0.02042300067842007 0.0221829991787672 0  -0.01632199995219707 0.02210500091314316 0  -0.01682000048458576 0.02123099938035011 0  -0.01590199954807758 0.02119999937713146 0  -0.01717000082135201 0.02222900092601776 0  -0.0180089995265007 0.02222800068557262 0  -0.01753599941730499 0.02310699969530106 0  0.041143998503685 0.07633800059556961 0  0.04081499949097633 0.07550899684429169 0  0.04208000004291534 0.07557500153779984 0  0.04405200108885765 0.08618699759244919 0  0.0448249988257885 0.08640100061893463 0  0.04373300075531006 0.08690299838781357 0  0.02615999989211559 0.09497900307178497 0  0.02634299919009209 0.09424500167369843 0  0.02723499946296215 0.09448499977588654 0  0.02517200075089931 0.09543199837207794 0  0.02534900046885014 0.09454800188541412 0  -0.007050999905914068 0.09226000308990479 0  -0.006200000178068876 0.09250699728727341 0  -0.006785000208765268 0.09305399656295776 0  -0.005921000149101019 0.09330599755048752 0  -0.01730299927294254 0.09116300195455551 0  -0.01760599948465824 0.09052000194787979 0  -0.01664000004529953 0.09079699963331223 0  -0.01818500086665154 0.09115099906921387 0  -0.01448099967092276 0.09666100144386292 0  -0.01476300042122602 0.09734400361776352 0  -0.01520099956542253 0.0966389998793602 0  -0.01044300012290478 0.09072600305080414 0  -0.009657000191509724 0.09090500324964523 0  -0.01023500040173531 0.09146200120449066 0  -0.01123599987477064 0.09055700153112411 0  -0.01065799966454506 0.09000100195407867 0  -0.01145000010728836 0.08983200043439865 0  -0.0137550001963973 0.09201599657535553 0  -0.01429400034248829 0.09255199879407883 0  -0.01458500046283007 0.09182800352573395 0  -0.01260999962687492 0.09093599766492844 0  -0.01342799980193377 0.09076400101184845 0  -0.01284299977123737 0.09021700173616409 0  0.01168399956077337 0.08957300335168839 0  0.01271899975836277 0.08944500237703323 0  0.01210999954491854 0.09016299992799759 0  0.00774300005286932 0.07782699912786484 0  0.008205000311136246 0.07701899856328964 0  0.00877700001001358 0.0776979997754097 0  -0.008849999867379665 0.01675999909639359 0  -0.008086999878287315 0.0169220007956028 0  -0.009662000462412834 0.01669600047171116 0  -0.01051000040024519 0.01662899926304817 0  -0.01391999982297421 0.01679999940097332 0  -0.01411399990320206 0.01791699975728989 0  -0.01470599975436926 0.01704199984669685 0  -0.01336100045591593 0.01768199913203716 0  -0.01335200015455484 0.01873300038278103 0  -0.01258799992501736 0.01780799962580204 0  -0.01281800027936697 0.02168699912726879 0  -0.01329800020903349 0.02074199914932251 0  -0.01242799963802099 0.02072899974882603 0  -0.012020000256598 0.01982299983501434 0  -0.01147800032049417 0.02064800076186657 0  -0.01291100028902292 0.01974299922585487 0  -0.01369099970906973 0.02175500057637691 0  -0.01503599993884563 0.02104599960148335 0  -0.01543200016021729 0.02203099988400936 0  -0.0145650003105402 0.02189300023019314 0  -0.0101290000602603 0.01953200064599514 0  -0.01147099956870079 0.03078199923038483 0  -0.01196799986064434 0.0299260001629591 0  -0.01105600036680698 0.02981700003147125 0  -0.006428000051528215 0.02917899936437607 0  -0.006856000050902367 0.03016499988734722 0  -0.007354000117629766 0.0293160006403923 0  -0.009227000176906586 0.0195349995046854 0  -0.006940000224858522 0.01879099942743778 0  -0.007850999943912029 0.0186999998986721 0  -0.007158999796956778 0.01794200018048286 0  -0.007263000123202801 0.01709599979221821 0  -0.00634999992325902 0.01728999987244606 0  0.04601600021123886 0.0828000009059906 0  0.04675199836492538 0.0822329968214035 0  0.04668200016021729 0.08332300186157227 0  0.04566099867224693 0.08356799930334091 0  0.01437199953943491 0.05753599852323532 0  0.01532499957829714 0.05729300156235695 0  0.01493899989873171 0.05823599919676781 0  0.02610800042748451 0.04086599871516228 0  0.02648100070655346 0.03977600112557411 0  0.02696800045669079 0.04039900004863739 0  0.02840599976480007 0.04451800137758255 0  0.02921999990940094 0.0437140017747879 0  0.02960599958896637 0.04436400160193443 0  0.02844700030982494 0.04785799980163574 0  0.02754499949514866 0.04809600114822388 0  0.02797700092196465 0.04710999876260757 0  0.02749500051140785 0.04640800133347511 0  0.02844999916851521 0.04611999914050102 0  0.02704799920320511 0.04738299921154976 0  0.02662299945950508 0.04835600033402443 0  0.02652500011026859 0.0467119999229908 0  0.02595500089228153 0.04607199877500534 0  0.0255539994686842 0.04700300097465515 0  0.02497499994933605 0.04635399952530861 0  0.04346799850463867 0.08500800281763077 0  0.04239499941468239 0.08514200150966644 0  0.04301600158214569 0.08443299680948257 0  0.04196599870920181 0.08454000204801559 0  0.005475999787449837 0.02283300086855888 0  0.006161000113934278 0.02326700091362 0  0.005524999927729368 0.02393300086259842 0  0.006264999974519014 0.02425399981439114 0  0.02458400093019009 0.04728399962186813 0  0.02091200090944767 0.04995099827647209 0  0.02052400074899197 0.05088900029659271 0  0.01994900032877922 0.05020799860358238 0  0.021484000608325 0.05062999948859215 0  0.02714999951422215 0.04906800016760826 0  0.01568200066685677 0.03365499898791313 0  0.01487100031226873 0.03356700018048286 0  0.01520999986678362 0.03263099864125252 0  0.01094700023531914 0.03931799903512001 0  0.01010399963706732 0.03935699909925461 0  0.01048300042748451 0.03842400014400482 0  0.009638999588787556 0.03846300020813942 0  0.009259999729692936 0.03939500078558922 0  0.00917499978095293 0.03756900131702423 0  0.01001899968832731 0.03753099963068962 0  0.01056800037622452 0.04025200009346008 0  -0.02590199932456017 0.06679199635982513 0  -0.02487399987876415 0.0673149973154068 0  -0.02582200057804585 0.06754499673843384 0  -0.02420900017023087 0.0667790025472641 0  -0.02387100085616112 0.06761199980974197 0  -0.02289899997413158 0.06790599972009659 0  -0.02337699942290783 0.06851500272750854 0  -0.02232900075614452 0.06732600182294846 0  -0.02194599993526936 0.06818199902772903 0  -0.02246000058948994 0.0687830001115799 0  -0.02604199945926666 0.06511499732732773 0  -0.01771100051701069 0.0800039991736412 0  -0.01863499917089939 0.07976599782705307 0  -0.01744999922811985 0.08783499896526337 0  -0.01830600015819073 0.08767099678516388 0  -0.01774800010025501 0.08709699660539627 0  -0.01860000006854534 0.08693700283765793 0  -0.01804699935019016 0.08635299652814865 0  -0.01673400029540062 0.09012000262737274 0  -0.01592699997127056 0.09028200060129166 0  -0.01575399935245514 0.09097400307655334 0  -0.01304799970239401 0.08330400288105011 0  -0.01062200032174587 0.07820100337266922 0  -0.009695000015199184 0.07844600081443787 0  -0.01019600033760071 0.07904499769210815 0  -0.009806999936699867 0.07986900210380554 0  -0.009290999732911587 0.07927899807691574 0  -0.01435100007802248 0.07568100094795227 0  -0.01481399964541197 0.07479000091552734 0  -0.01388000044971704 0.07504799962043762 0  -0.01294500008225441 0.07530499994754791 0  -0.01339800003916025 0.07441599667072296 0  -0.01716399937868118 0.07794799655675888 0  -0.01669199950993061 0.07732199877500534 0  -0.01763200014829636 0.07706599682569504 0  -0.0185720007866621 0.07681199908256531 0  -0.02300200052559376 0.06938599795103073 0  -0.02355499938130379 0.07152300328016281 0  -0.0231660008430481 0.07238899916410446 0  -0.02230699919164181 0.02407800033688545 0  -0.02254999987781048 0.02462000027298927 0  -0.02271099947392941 0.02514700032770634 0  -0.02288400009274483 0.02571400068700314 0  -0.02206799946725368 0.02583399973809719 0  -0.01955899968743324 0.02395600080490112 0  -0.01872600056231022 0.02405899949371815 0  -0.02039800025522709 0.02382300049066544 0  -0.02181000076234341 0.02297299914062023 0  -0.01779000088572502 0.01839400082826614 0  -0.01741700060665607 0.01915499940514565 0  -0.01847000047564507 0.01878999918699265 0  -0.01709200069308281 0.01798900030553341 0  -0.01833100058138371 0.02321000024676323 0  -0.01669
[...]
<PointData  Vectors="velocity"> 
<DataArray  type="Float64"  Name="velocity"  NumberOfComponents="3" format="ascii">3.2210000790655613e-03 9.0000003183376975e-06 0.0000000000000000e+00  3.0910000205039978e-03 2.4799999664537609e-04 0.0000000000000000e+00  3.0219999607652426e-03 -3.0219999607652426e-03 0.0000000000000000e+00  3.5530000459402800e-03 -3.2879998907446861e-03 0.0000000000000000e+00  2.7620000764727592e-03 -2.7620000764727592e-03 0.0000000000000000e+00  5.4390002042055130e-03 9.2199997743591666e-04 0.0000000000000000e+00  5.8519998565316200e-03 1.4939999673515558e-03 0.0000000000000000e+00  8.5969995707273483e-03 2.5349999777972698e-03 0.0000000000000000e+00  6.1030001379549503e-03 1.9290000200271606e-03 0.0000000000000000e+00  8.0669997259974480e-03 1.7600000137463212e-03 0.0000000000000000e+00  1.5141000039875507e-02 -1.3214999809861183e-02 0.0000000000000000e+00  6.0910000465810299e-03 -1.7627000808715820e-02 0.0000000000000000e+00  1.3883999548852444e-02 -1.1851999908685684e-02 0.0000000000000000e+00  7.9539995640516281e-03 -1.4945000410079956e-02 0.0000000000000000e+00  -1.6110999509692192e-02 -6.6657997667789459e-02 0.0000000000000000e+00  1.7780000343918800e-03 -3.3463999629020691e-02 0.0000000000000000e+00  2.0129999611526728e-03 -3.2995000481605530e-02 0.0000000000000000e+00  -5.5359997786581516e-03 -7.5136996805667877e-02 0.0000000000000000e+00  -6.8769999779760838e-03 -6.9072000682353973e-02 0.0000000000000000e+00  -6.4610000699758530e-03 -6.8752996623516083e-02 0.0000000000000000e+00  6.0439999215304852e-03 -3.0975999310612679e-02 0.0000000000000000e+00  -5.0895001739263535e-02 -1.0262099653482437e-01 0.0000000000000000e+00  -4.8799999058246613e-02 -1.0067900270223618e-01 0.0000000000000000e+00  -4.8748001456260681e-02 -1.0290700197219849e-01 0.0000000000000000e+00  -3.0525000765919685e-02 -8.7245002388954163e-02 0.0000000000000000e+00  -3.2850999385118484e-02 -9.1944001615047455e-02 0.0000000000000000e+00  -3.1932000070810318e-02 -8.7573997676372528e-02 0.0000000000000000e+00  -3.1622998416423798e-02 -9.1986998915672302e-02 0.0000000000000000e+00  3.0219999607652426e-03 5.9800001326948404e-04 0.0000000000000000e+00  5.1429998129606247e-03 1.5079999575391412e-03 0.0000000000000000e+00  5.1830001175403595e-03 1.7740000039339066e-03 0.0000000000000000e+00  4.1880002245306969e-03 1.1780000058934093e-03 0.0000000000000000e+00  2.6849999558180571e-03 4.6899999142624438e-04 0.0000000000000000e+00  7.5739999301731586e-03 2.7429999317973852e-03 0.0000000000000000e+00  7.5539997778832912e-03 2.3799999617040157e-03 0.0000000000000000e+00  1.0359000414609909e-02 3.2790000550448895e-03 0.0000000000000000e+00  9.7960000857710838e-03 3.3299999777227640e-03 0.0000000000000000e+00  2.7459999546408653e-03 2.3999999393709004e-04 0.0000000000000000e+00  5.2729998715221882e-03 -4.8870001919567585e-03 0.0000000000000000e+00  4.5329998247325420e-03 -3.7779998965561390e-03 0.0000000000000000e+00  4.0569999255239964e-03 -3.5399999469518661e-03 0.0000000000000000e+00  3.3869999460875988e-03 7.6700001955032349e-04 0.0000000000000000e+00  3.4920000471174717e-03 7.0799997774884105e-04 0.0000000000000000e+00  1.2752000242471695e-02 5.1999999413965270e-05 0.0000000000000000e+00  9.8750004544854164e-03 -2.6400000206194818e-04 0.0000000000000000e+00  1.1435000225901604e-02 -1.4489999739453197e-03 0.0000000000000000e+00  1.1377000249922276e-02 1.0310000507161021e-03 0.0000000000000000e+00  9.5049999654293060e-03 1.4870000304654241e-03 0.0000000000000000e+00  1.2403000146150589e-02 2.2209999151527882e-03 0.0000000000000000e+00  4.9162998795509338e-02 7.0155002176761627e-02 0.0000000000000000e+00  4.7952998429536819e-02 7.1833997964859009e-02 0.0000000000000000e+00  -1.9847000017762184e-02 -2.5448000058531761e-02 0.0000000000000000e+00  5.4306998848915100e-02 7.6113000512123108e-02 0.0000000000000000e+00  5.0388999283313751e-02 6.5105997025966644e-02 0.0000000000000000e+00  5.8706998825073242e-02 8.3296000957489014e-02 0.0000000000000000e+00  -2.7284000068902969e-02 1.2922699749469757e-01 0.0000000000000000e+00  -2.2714000195264816e-02 1.4037300646305084e-01 0.0000000000000000e+00  -1.5587000176310539e-02 1.4077900350093842e-01 0.0000000000000000e+00  -3.7820998579263687e-02 1.1834999918937683e-01 0.0000000000000000e+00  -3.2740000635385513e-02 1.3149599730968475e-01 0.0000000000000000e+00  -8.1413999199867249e-02 -8.9766003191471100e-02 0.0000000000000000e+00  -8.4737002849578857e-02 -8.9767999947071075e-02 0.0000000000000000e+00  -8.1877000629901886e-02 -8.6400002241134644e-02 0.0000000000000000e+00  -8.6442999541759491e-02 -8.6029998958110809e-02 0.0000000000000000e+00  -3.2023999840021133e-02 -5.3481999784708023e-02 0.0000000000000000e+00  -3.3840000629425049e-02 -5.5172998458147049e-02 0.0000000000000000e+00  -3.6869999021291733e-02 -5.8517001569271088e-02 0.0000000000000000e+00  5.7799997739493847e-03 -3.8284998387098312e-02 0.0000000000000000e+00  -3.2595001161098480e-02 -4.1356001049280167e-02 0.0000000000000000e+00  -3.8789999671280384e-03 -4.2358998209238052e-02 0.0000000000000000e+00  -2.2640000097453594e-03 -4.1551001369953156e-02 0.0000000000000000e+00  -6.5877996385097504e-02 -8.8487997651100159e-02 0.0000000000000000e+00  -6.9535002112388611e-02 -9.0164996683597565e-02 0.0000000000000000e+00  -6.7368999123573303e-02 -8.5821002721786499e-02 0.0000000000000000e+00  -6.2102001160383224e-02 -8.6037002503871918e-02 0.0000000000000000e+00  -6.3900001347064972e-02 -9.0703003108501434e-02 0.0000000000000000e+00  -6.0315001755952835e-02 -8.8293999433517456e-02 0.0000000000000000e+00  -4.6289999037981033e-02 -6.6784001886844635e-02 0.0000000000000000e+00  -4.3028000742197037e-02 -6.1462998390197754e-02 0.0000000000000000e+00  -4.2364001274108887e-02 -6.3570998609066010e-02 0.0000000000000000e+00  -5.5906999856233597e-02 -7.8272998332977295e-02 0.0000000000000000e+00  -5.2060998976230621e-02 -7.5094997882843018e-02 0.0000000000000000e+00  -5.4646998643875122e-02 -8.0542996525764465e-02 0.0000000000000000e+00  -4.4870000332593918e-02 7.3898002505302429e-02 0.0000000000000000e+00  -3.8017001003026962e-02 8.6382001638412476e-02 0.0000000000000000e+00  -5.6074000895023346e-02 7.4762001633644104e-02 0.0000000000000000e+00  7.9388998448848724e-02 1.0348699986934662e-01 0.0000000000000000e+00  8.2484997808933258e-02 1.1160399764776230e-01 0.0000000000000000e+00  8.6056999862194061e-02 1.1385100334882736e-01 0.0000000000000000e+00  1.5109999803826213e-03 -2.2670000325888395e-03 0.0000000000000000e+00  1.5109999803826213e-03 -2.2670000325888395e-03 0.0000000000000000e+00  1.2690000003203750e-03 -2.0250000525265932e-03 0.0000000000000000e+00  1.0169999441131949e-03 -1.7729999963194132e-03 0.0000000000000000e+00  1.5109999803826213e-03 -1.5109999803826213e-03 0.0000000000000000e+00  7.7920001931488514e-03 -5.0530000589787960e-03 0.0000000000000000e+00  1.5109999803826213e-03 -1.7590000061318278e-03 0.0000000000000000e+00  9.5260003581643105e-03 -5.7160002179443836e-03 0.0000000000000000e+00  8.7580000981688499e-03 -8.0589996650815010e-03 0.0000000000000000e+00  1.0374999605119228e-02 -7.7539999037981033e-03 0.0000000000000000e+00  1.4895999804139137e-02 -7.1870000101625919e-03 0.0000000000000000e+00  1.2316999956965446e-02 -7.4319997802376747e-03 0.0000000000000000e+00  1.2137999758124352e-02 -9.6629997715353966e-03 0.0000000000000000e+00  9.8139997571706772e-03 -1.1688999831676483e-02 0.0000000000000000e+00  1.1222999542951584e-02 -1.2295999564230442e-02 0.0000000000000000e+00  1.0141000151634216e-02 -9.3210004270076752e-03 0.0000000000000000e+00  1.5014000236988068e-02 -5.0030001439154148e-03 0.0000000000000000e+00  1.2234999798238277e-02 -3.0879999976605177e-03 0.0000000000000000e+00  1.4000000432133675e-02 -1.3000000035390258e-03 0.0000000000000000e+00  1.4758000150322914e-02 -2.9889999423176050e-03 0.0000000000000000e+00  6.0209999792277813e-03 -1.7345000058412552e-02 0.0000000000000000e+00  4.2429998517036438e-02 5.0280001014471054e-03 0.0000000000000000e+00  3.7813000380992889e-02 4.9220002256333828e-03 0.0000000000000000e+00  4.0996000170707703e-02 5.7419999502599239e-03 0.0000000000000000e+00  5.4997999221086502e-02 6.4369998872280121e-03 0.0000000000000000e+00  6.2160998582839966e-02 6.6889999434351921e-03 0.0000000000000000e+00  5.2406001836061478e-02 7.5699998997151852e-03 0.0000000000000000e+00  3.0129998922348022e-03 -1.9973000511527061e-02 0.0000000000000000e+00  -9.5650004222989082e-03 -2.4692000821232796e-02 0.0000000000000000e+00  -2.6060000527650118e-03 -2.3115999996662140e-02 0.0000000000000000e+00  1.2720000231638551e-03 -2.1422000601887703e-02 0.0000000000000000e+00  1.5109999803826213e-03 -2.2670000325888395e-03 0.0000000000000000e+00  1.5109999803826213e-03 -2.2670000325888395e-03 0.0000000000000000e+00  2.6349000632762909e-02 2.9324999079108238e-02 0.0000000000000000e+00  1.8409000709652901e-02 1.5790000557899475e-02 0.0000000000000000e+00  2.3885000497102737e-02 2.3485999554395676e-02 0.0000000000000000e+00  3.2508000731468201e-02 3.8970001041889191e-02 0.0000000000000000e+00  3.2575998455286026e-02 1.5275500714778900e-01 0.0000000000000000e+00  3.7753000855445862e-02 1.6125500202178955e-01 0.0000000000000000e+00  2.0610999315977097e-02 1.6056199371814728e-01 0.0000000000000000e+00  3.2503999769687653e-02 3.1019000336527824e-02 0.0000000000000000e+00  -1.0576999746263027e-02 -1.5110000036656857e-02 0.0000000000000000e+00  -1.0576999746263027e-02 -1.5110000036656857e-02 0.0000000000000000e+00  3.8844000548124313e-02 5.1580000668764114e-02 0.0000000000000000e+00  -1.0842000134289265e-02 -1.6130000352859497e-02 0.0000000000000000e+00  -1.1078000068664551e-02 -1.6366999596357346e-02 0.0000000000000000e+00  5.7759001851081848e-02 9.0878002345561981e-02 0.0000000000000000e+00  6.9009996950626373e-02 1.0291899740695953e-01 0.0000000000000000e+00  6.0139998793601990e-02 8.6722001433372498e-02 0.0000000000000000e+00  6.2185999006032944e-02 8.3162002265453339e-02 0.0000000000000000e+00  4.9212001264095306e-02 6.9741003215312958e-02 0.0000000000000000e+00  7.2315998375415802e-02 9.9363997578620911e-02 0.0000000000000000e+00  7.9986996948719025e-02 1.1412099748849869e-01 0.0000000000000000e+00  7.5415000319480896e-02 9.6507996320724487e-02 0.0000000000000000e+00  7.8729003667831421e-02 9.4152003526687622e-02 0.0000000000000000e+00  8.7687000632286072e-02 1.0813900083303452e-01 0.0000000000000000e+00  9.1388002038002014e-02 1.0571900010108948e-01 0.0000000000000000e+00  5.3844001144170761e-02 8.1367999315261841e-02 0.0000000000000000e+00  6.0550998896360397e-02 1.0079599916934967e-01 0.0000000000000000e+00  5.4676000028848648e-02 8.7073996663093567e-02 0.0000000000000000e+00  6.1303000897169113e-02 1.0666699707508087e-01 0.0000000000000000e+00  -3.4910000395029783e-03 -2.5009999517351389e-03 0.0000000000000000e+00  -3.9949999190866947e-03 -2.7530000079423189e-03 0.0000000000000000e+00  -1.6950000077486038e-02 -1.2138999998569489e-02 0.0000000000000000e+00  -1.6626000404357910e-02 -1.1730000376701355e-02 0.0000000000000000e+00  9.8673999309539795e-02 1.1808799952268600e-01 0.0000000000000000e+00  1.2416099756956100e-01 1.4945499598979950e-01 0.0000000000000000e+00  1.2234599888324738e-01 1.5377999842166901e-01 0.0000000000000000e+00  1.2776400148868561e-01 1.5038600564002991e-01 0.0000000000000000e+00  1.1882600188255310e-01 1.5293900668621063e-01 0.0000000000000000e+00  7.4409998953342438e-02 1.1807800084352493e-01 0.0000000000000000e+00  3.9195001125335693e-02 2.2540999576449394e-02 0.0000000000000000e+00  4.5251000672578812e-02 2.5606000795960426e-02 0.0000000000000000e+00  2.7225999161601067e-02 1.5592000447213650e-02 0.0000000000000000e+00  1.7317999899387360e-01 9.5597997307777405e-02 0.0000000000000000e+00  1.7966599762439728e-01 9.5434002578258514e-02 0.0000000000000000e+00  1.6911800205707550e-01 8.8522002100944519e-02 0.0000000000000000e+00  1.7605100572109222e-01 8.8229998946189880e-02 0.0000000000000000e+00  1.8559099733829498e-01 9.4129003584384918e-02 0.0000000000000000e+00  1.7025700211524963e-01 8.0801002681255341e-02 0.0000000000000000e+00  1.6305899620056152e-01 8.1130996346473694e-02 0.0000000000000000e+00  1.8348899483680725e-01 1.0167600214481354e-01 0.0000000000000000e+00  5.2769999019801617e-03 -3.1231999397277832e-02 0.0000000000000000e+00  -8.2179997116327286e-03 -7.0128999650478363e-02 0.0000000000000000e+00  4.5750001445412636e-03 -3.1465001404285431e-02 0.0000000000000000e+00  -6.3020000234246254e-03 -7.6286002993583679e-02 0.0000000000000000e+00  -8.1299999728798866e-03 -7.8014999628067017e-02 0.0000000000000000e+00  -8.7310001254081726e-03 -8.6081996560096741e-02 0.0000000000000000e+00  -1.1731999926269054e-02 -8.1160001456737518e-02 0.0000000000000000e+00  -6.8569998256862164e-03 -9.2372000217437744e-02 0.0000000000000000e+00  -9.9189998582005501e-03 -9.4063997268676758e-02 0.0000000000000000e+00  -1.2822000309824944e-02 -8.8538996875286102e-02 0.0000000000000000e+00  6.8350001238286495e-03 -3.0448000878095627e-02 0.0000000000000000e+00  -3.3394999802112579e-02 -8.7908998131752014e-02 0.0000000000000000e+00  -3.1074000522494316e-02 -8.3203002810478210e-02 0.0000000000000000e+00  -3.7176001816987991e-02 -6.6808998584747314e-02 0.0000000000000000e+00  -3.4129999577999115e-02 -6.2728002667427063e-02 0.0000000000000000e+00  -3.5976998507976532e-02 -6.7778997123241425e-02 0.0000000000000000e+00  -3.3215001225471497e-02 -6.3744999468326569e-02 0.0000000000000000e+00  -3.4788001328706741e-02 -6.8595997989177704e-02 0.0000000000000000e+00  -3.7388999015092850e-02 -6.1039000749588013e-02 0.0000000000000000e+00  -4.0807999670505524e-02 -6.4562000334262848e-02 0.0000000000000000e+00  -4.0564998984336853e-02 -6.2254998832941055e-02 0.0000000000000000e+00  -4.6861000359058380e-02 -1.0128100216388702e-01 0.0000000000000000e+00  -4.1948001831769943e-02 -1.0598500072956085e-01 0.0000000000000000e+00  -4.1026998311281204e-02 -1.0130699723958969e-01 0.0000000000000000e+00  -4.2456001043319702e-02 -1.0371100157499313e-01 0.0000000000000000e+00  -4.3147001415491104e-02 -1.0232999920845032e-01 0.0000000000000000e+00  -4.1742000728845596e-02 -9.9909998476505280e-02 0.0000000000000000e+00  -3.9057001471519470e-02 -1.1387699842453003e-01 0.0000000000000000e+00  -3.8104001432657242e-02 -1.1569900065660477e-01 0.0000000000000000e+00  -3.9840001612901688e-02 -1.1678799986839294e-01 0.0000000000000000e+00  -4.0681999176740646e-02 -1.1547800153493881e-01 0.0000000000000000e+00  -3.9448998868465424e-02 -1.1841399967670441e-01 0.0000000000000000e+00  -3.3877998590469360e-02 -9.6326000988483429e-02 0.0000000000000000e+00  -3.4722998738288879e-02 -1.0059700161218643e-01 0.0000000000000000e+00  -3.2400000840425491e-02 -9.6438996493816376e-02 0.0000000000000000e+00  -2.9960999265313148e-02 -9.1635003685951233e-02 0.0000000000000000e+00  -1.3700000010430813e-02 -8.2350999116897583e-02 0.0000000000000000e+00  -1.5469999983906746e-02 -7.2250001132488251e-02 0.0000000000000000e+00  -1.7458999529480934e-02 -7.3150999844074249e-02 0.0000000000000000e+00  5.6650000624358654e-03 -5.4750000126659870e-03 0.0000000000000000e+00  6.0439999215304852e-03 -6.0439999215304852e-03 0.0000000000000000e+00  6.3959998078644276e-03 -6.7480001598596573e-03 0.0000000000000000e+00  6.7750001326203346e-03 -7.5070001184940338e-03 0.0000000000000000e+00  2.2050000261515379e-03 1.9200000679120421e-04 0.0000000000000000e+00  8.6219999939203262e-03 2.9009999707341194e-03 0.0000000000000000e+00  1.1185999959707260e-02 3.4330000635236502e-03 0.0000000000000000e+00  5.3099999204277992e-03 1.4499999815598130e-03 0.0000000000000000e+00  4.8919999971985817e-03 -4.3159998022019863e-03 0.0000000000000000e+00  2.0270000677555799e-03 -2.2670000325888395e-03 0.0000000000000000e+00  4.1649998165667057e-03 -8.4900000365450978e-04 0.0000000000000000e+00  2.2670000325888395e-03 -2.2670000325888395e-03 0.0000000000000000e+00  1.7819999484345317e-03 -2.2670000325888395e-03 0.0000000000000000e+00  1.0714000090956688e-02 2.5790000800043344e-03 0.0000000000000000e+00  1.4158999547362328e-02 1.6049999976530671e-03 0.0000000000000000e+00  1.6843000426888466e-02 2.2289999760687351e-03 0.0000000000000000e+00  1.5108999796211720e-02 2.9430000577121973e-03 0.0000000000000000e+00  3.8084998726844788e-02 3.9590001106262207e-03 0.0000000000000000e+00  4.2442001402378082e-02 2.8709999751299620e-03 0.0000000000000000e+00  3.7725001573562622e-02 1.8980000168085098e-03 0.0000000000000000e+00  1.4357999898493290e-02 -9.5849996432662010e-03 0.0000000000000000e+00  1.9788000732660294e-02 -7.7300001867115498e-03 0.0000000000000000e+00  2.2547999396920204e-02 -5.9699998237192631e-03 0.0000000000000000e+00  2.3230999708175659e-02 -4.5650000683963299e-03 0.0000000000000000e+00  1.8355999141931534e-02 -9.4060003757476807e-03 0.0000000000000000e+00  1.5763999894261360e-02 -1.1095000430941582e-02 0.0000000000000000e+00  2.5341000407934189e-02 -3.6440000403672457e-03 0.0000000000000000e+00  2.8650000691413879e-02 -7.5299997115507722e-04 0.0000000000000000e+00  2.9425000771880150e-02 -5.0700001884251833e-04 0.0000000000000000e+00  2.9629999771714211e-02 3.0299000442028046e-02 0.0000000000000000e+00  2.4119000881910324e-02 2.0250000059604645e-02 0.0000000000000000e+00  3.2908000051975250e-02 3.3569999039173126e-02 0.0000000000000000e+00  5.1934000104665756e-02 8.7174996733665466e-02 0.0000000000000000e+00  4.9228001385927200e-02 7.8612998127937317e-02 0.0000000000000000e+00  5.7263001799583435e-02 9.8944999277591705e-02 0.0000000000000000e+00  9.1738000512123108e-02 1.6852200031280518e-01 0.0000000000000000e+00  9.7395002841949463e-02 1.8452499806880951e-01 0.0000000000000000e+00  9.3664996325969696e-02 1.7514200508594513e-01 0.0000000000000000e+00  -1.8888000398874283e-02 -2.5686999782919884e-02 0.0000000000000000e+00  6.9925002753734589e-02 1.1783500015735626e-01 0.0000000000000000e+00  7.2554998099803925e-02 1.3302600383758545e-01 0.0000000000000000e+00  7.1078002452850342e-02 1.2821599841117859e-01 0.0000000000000000e+00  6.7109003663063049e-02 1.1236099898815155e-01 0.0000000000000000e+00  6.6673003137111664e-02 1.0650499910116196e-01 0.0000000000000000e+00  6.2862999737262726e-02 9.5129996538162231e-02 0.0000000000000000e+00  6.7590996623039246e-02 1.2696599960327148e-01 0.0000000000000000e+00  6.2577001750469208e-02 1.1292900145053864e-01 0.0000000000000000e+00  6.9191001355648041e-02 1.3347299396991730e-01 0.0000000000000000e+00  6.4260996878147125e-02 1.1911000311374664e-01 0.0000000000000000e+00  5.3780999034643173e-02 7.7981002628803253e-02 0.0000000000000000e+00  6.0683000832796097e-02 9.3492001295089722e-02 0.0000000000000000e+00  6.4966000616550446e-02 1.0866300016641617e-01 0.0000000000000000e+00  7.0179000496864319e-02 1.2658500671386719e-01 0.0000000000000000e+00  7.3211997747421265e-02 1.4338099956512451e-01 0.0000000000000000e+00  7.0641003549098969e-02 1.3265700638294220e-01 0.0000000000000000e+00  5.9829000383615494e-02 9.4792999327182770e-02 0.0000000000000000e+00  -5.9122998267412186e-02 9.5408000051975250e-02 0.0000000000000000e+00  -6.8056002259254456e-02 8.5097998380661011e-02 0.0000000000000000e+00  -6.5072998404502869e-02 9.4065003097057343e-02 0.0000000000000000e+00  -4.1659999638795853e-02 1.2712000310420990e-01 0.0000000000000000e+00  -4.1760999709367752e-02 1.1926600337028503e-01 0.0000000000000000e+00  -4.9536000937223434e-02 1.1381500214338303e-01 0.0000000000000000e+00  -4.8748999834060669e-02 1.0682699829339981e-01 0.0000000000000000e+00  -7.5094997882843018e-02 -8.8951997458934784e-02 0.0000000000000000e+00  -6.9292999804019928e-02 -8.4119997918605804e-02 0.0000000000000000e+00  -7.1157999336719513e-02 -8.7417997419834137e-02 0.0000000000000000e+00  -7.3252998292446136e-02 -9.1605998575687408e-02 0.0000000000000000e+00  -8.4664002060890198e-02 -9.2766001820564270e-02 0.0000000000000000e+00  -1.0832600295543671e-01 -7.2596997022628784e-02 0.0000000000000000e+00  -1.0416699945926666e-01 -7.7846996486186981e-02 0.0000000000000000e+00  -1.1014399677515030e-01 -7.0401