<?xml version="1.0"?>
<VTKFile type="UnstructuredGrid"  version="0.1"  >
<UnstructuredGrid>
<Piece  NumberOfPoints="6340" NumberOfCells="12376">
<Points>
<DataArray  type="Float64"  NumberOfComponents="3"  format="ascii">-0.01915800012648106 0.02052100002765656 0  -0.01981000043451786 0.02112999930977821 0  -0.0200399998575449 0.0201600007712841 0  -0.02055300027132034 0.02083499915897846 0  -0.01938899978995323 0.01960599981248379 0  -0.01899700053036213 0.02139000035822392 0  -0.01946800015866756 0.02208299934864044 0  -0.01901300065219402 0.02291000075638294 0  -0.0198999997228384 0.02276699990034103 0  -0.01854700036346912 0.02212299965322018 0  -0.00825399998575449 0.01786299981176853 0  -0.008917000144720078 0.01873099990189075 0  -0.009247999638319016 0.01779000088572502 0  -0.009917999617755413 0.01869799941778183 0  -0.02559700049459934 0.07142800092697144 0  -0.02654499933123589 0.0717179998755455 0  -0.02668200060725212 0.07094000279903412 0  -0.02579100057482719 0.06506200134754181 0  -0.02645399980247021 0.06567300111055374 0  -0.02660300023853779 0.06478799879550934 0  -0.02735999971628189 0.06510999798774719 0  -0.01334800012409687 0.08384600281715393 0  -0.01420800015330315 0.08364299684762955 0  -0.01357899978756905 0.08309900015592575 0  -0.01993199996650219 0.07784400135278702 0  -0.01895999908447266 0.0781090036034584 0  -0.01950599998235703 0.07870599627494812 0  -0.01939200051128864 0.07723800092935562 0  -0.02146800048649311 0.02398199960589409 0  -0.02065099962055683 0.02420300059020519 0  -0.02098700031638145 0.02487999945878983 0  -0.02128399908542633 0.02556999959051609 0  -0.02181899920105934 0.02466700039803982 0  -0.02016299962997437 0.02510599978268147 0  -0.01980400085449219 0.02436099946498871 0  -0.01894200034439564 0.02449999935925007 0  -0.01931600086390972 0.02524900063872337 0  -0.02112800069153309 0.02328700013458729 0  -0.02201900072395802 0.02310300059616566 0  -0.0215000007301569 0.02208000048995018 0  -0.02104000002145767 0.02147500030696392 0  -0.02075899951159954 0.02254099957644939 0  -0.02028300054371357 0.02184299938380718 0  -0.0159779991954565 0.02190900035202503 0  -0.0164790004491806 0.02102600038051605 0  -0.01551300007849932 0.02102800086140633 0  -0.01687199994921684 0.02200100012123585 0  -0.01775299943983555 0.0219700001180172 0  -0.01727700047194958 0.02285799942910671 0  0.0379289984703064 0.07650800049304962 0  0.03780199959874153 0.07563400268554688 0  0.0389380007982254 0.0757099986076355 0  0.0384569987654686 0.08679799735546112 0  0.03911599889397621 0.08702400326728821 0  0.0380610004067421 0.08749199658632278 0  0.021076999604702 0.09502299875020981 0  0.02135399915277958 0.09431000053882599 0  0.02211599983274937 0.09456200152635574 0  0.02012299932539463 0.09544599801301956 0  0.02041799947619438 0.09458500146865845 0  -0.009344999678432941 0.09163899719715118 0  -0.008503000251948833 0.0919170007109642 0  -0.00917499978095293 0.09243500232696533 0  -0.008318999782204628 0.09271799772977829 0  -0.01977100037038326 0.09042400121688843 0  -0.02000899985432625 0.08980199694633484 0  -0.01904099993407726 0.09007800370454788 0  -0.02068299986422062 0.09040399640798569 0  -0.01754200085997581 0.09575799852609634 0  -0.01791699975728989 0.09641700237989426 0  -0.01828099973499775 0.09572499990463257 0  -0.0126350000500679 0.0900690034031868 0  -0.01184699963778257 0.0902549996972084 0  -0.012512999586761 0.09078499674797058 0  -0.0134309995919466 0.08989399671554565 0  -0.01276499964296818 0.08936499804258347 0  -0.01355999987572432 0.08919099718332291 0  -0.01620999909937382 0.09127099812030792 0  -0.01683299988508224 0.09178099781274796 0  -0.01704300008714199 0.09108100086450577 0  -0.014894999563694 0.09024199843406677 0  -0.01571800000965595 0.0900690034031868 0  -0.01504599954932928 0.08954799920320511 0  0.008949000388383865 0.0894400030374527 0  0.009895999915897846 0.08933600038290024 0  0.009239999577403069 0.09002599865198135 0  0.007234999909996986 0.07787600159645081 0  0.007818000391125679 0.07705099880695343 0  0.008179999887943268 0.07777199894189835 0  -0.007969999685883522 0.01696999929845333 0  -0.007158000022172928 0.0171739999204874 0  -0.008829999715089798 0.01686800085008144 0  -0.009727999567985535 0.01676099933683872 0  -0.01331999991089106 0.01675999909639359 0  -0.01355199981480837 0.01785599999129772 0  -0.01415199972689152 0.01696600019931793 0  -0.01275600027292967 0.01765700057148933 0  -0.01277200039476156 0.01869300007820129 0  -0.01194799970835447 0.01782000064849854 0  -0.0122859999537468 0.02163399942219257 0  -0.01276599988341331 0.02067999914288521 0  -0.01185199990868568 0.02070700004696846 0  -0.01140199974179268 0.0198340006172657 0  -0.01085400022566319 0.02067399956285954 0  -0.01233400031924248 0.01971100084483624 0  -0.01320500019937754 0.02166499942541122 0  -0.01460000034421682 0.02090699970722198 0  -0.01504100020974874 0.02186799980700016 0  -0.01412700023502111 0.021764000877738 0  -0.009405000135302544 0.01964199915528297 0  -0.01110100001096725 0.03067499957978725 0  -0.01160200033336878 0.02980899997055531 0  -0.0106410002335906 0.02974000014364719 0  -0.005747999995946884 0.0293320007622242 0  -0.00622999994084239 0.03028300032019615 0  -0.0067349998280406 0.0294209998100996 0  -0.008448000065982342 0.01968700066208839 0  -0.005987000185996294 0.019081000238657 0  -0.006959000136703253 0.01893699914216995 0  -0.006194999907165766 0.01823299936950207 0  -0.006281000096350908 0.01739500090479851 0  -0.005309999920427799 0.0176400002092123 0  0.04080799967050552 0.08347299695014954 0  0.04162999987602234 0.08287700265645981 0  0.04127899929881096 0.08403299748897552 0  0.04030200093984604 0.08427099883556366 0  0.01526200026273727 0.05800300091505051 0  0.01624700054526329 0.05778999999165535 0  0.01582100056111813 0.05871300026774406 0  0.02782700024545193 0.04184500128030777 0  0.02824899926781654 0.0407710000872612 0  0.02871700003743172 0.04141699895262718 0  0.02992199920117855 0.04563000053167343 0  0.03076699934899807 0.04486599937081337 0  0.03109700046479702 0.04554300010204315 0  0.02971599996089935 0.04899299889802933 0  0.02883899956941605 0.04918999969959259 0  0.02932699955999851 0.04822000116109848 0  0.02890799939632416 0.04748300090432167 0  0.02985399961471558 0.0472479984164238 0  0.02840599976480007 0.04844100028276443 0  0.02792700007557869 0.0493989996612072 0  0.02794600091874599 0.04773300141096115 0  0.02742400020360947 0.04705899953842163 0  0.02697600051760674 0.04797299951314926 0  0.02643799968063831 0.04729000106453896 0  0.03811600059270859 0.08563300222158432 0  0.03713399916887283 0.0857430025935173 0  0.03779999911785126 0.08506199717521667 0  0.03684300184249878 0.08514600247144699 0  0.007058999966830015 0.02390900067985058 0  0.00775599991902709 0.02435999922454357 0  0.007077999878674746 0.02498899959027767 0  0.007837000302970409 0.02533099986612797 0  0.02599900029599667 0.04820400103926659 0  0.02220099978148937 0.05069800093770027 0  0.02177000045776367 0.05161799862980843 0  0.02121599949896336 0.05090999975800514 0  0.0227460004389286 0.05140500143170357 0  0.02838099934160709 0.05014200136065483 0  0.01728799939155579 0.03460200130939484 0  0.01645400002598763 0.0345190018415451 0  0.01683099940419197 0.03360199928283691 0  0.01223399955779314 0.04015300050377846 0  0.01136500015854836 0.04018700122833252 0  0.01178199984133244 0.03927500173449516 0  0.01091200020164251 0.03931000083684921 0  0.0104940002784133 0.0402199998497963 0  0.01045900024473667 0.03843099996447563 0  0.01133000012487173 0.03839899972081184 0  0.01181699987500906 0.04106499999761581 0  -0.02729200012981892 0.06595300137996674 0  -0.02622300013899803 0.0665069967508316 0  -0.02723000012338161 0.06672299653291702 0  -0.02550400048494339 0.06597299873828888 0  -0.02517200075089931 0.06683199852705002 0  -0.02415500022470951 0.0671520009636879 0  -0.02467799931764603 0.0677649974822998 0  -0.02353500016033649 0.06657099723815918 0  -0.02315600030124187 0.06745400279760361 0  -0.02371799945831299 0.06805799901485443 0  -0.02739500068128109 0.06424400210380554 0  -0.01908800005912781 0.07955600321292877 0  -0.02004900015890598 0.07930099964141846 0  -0.01953300088644028 0.08721700310707092 0  -0.02040199935436249 0.08704899996519089 0  -0.01975700072944164 0.08650200068950653 0  -0.02062300033867359 0.08633799850940704 0  -0.01998399943113327 0.08578000217676163 0  -0.01905800029635429 0.08942499756813049 0  -0.01824199967086315 0.08958899974822998 0  -0.01814699918031693 0.0902549996972084 0  -0.01445300038903952 0.08288499712944031 0  -0.01151799969375134 0.07789699733257294 0  -0.01055100001394749 0.07816199958324432 0  -0.0111109996214509 0.07874999940395355 0  -0.01075199991464615 0.07957500219345093 0  -0.01017200015485287 0.07899899780750275 0  -0.0153590003028512 0.07526800036430359 0  -0.01582399941980839 0.07434999942779541 0  -0.01484400033950806 0.07463199645280838 0  -0.01386400032788515 0.07491400092840195 0  -0.01431799959391356 0.07399699836969376 0  -0.01841700077056885 0.07750999927520752 0  -0.01789299957454205 0.07688599824905396 0  -0.01887400075793266 0.07660699635744095 0  -0.01985700055956841 0.07632900029420853 0  -0.02430799975991249 0.06866300106048584 0  -0.02495500072836876 0.07083400338888168 0  -0.02457199990749359 0.0717260017991066 0  -0.02229399979114532 0.02364500053226948 0  -0.0225600004196167 0.02417000010609627 0  -0.02273900061845779 0.0246760006994009 0  -0.02293300069868565 0.02521999925374985 0  -0.02208399958908558 0.02538600005209446 0  -0.01941999979317188 0.02362900041043758 0  -0.01855099946260452 0.02375799976289272 0  -0.02029499970376492 0.02346999943256378 0  -0.0217519998550415 0.02257700078189373 0  -0.01742500066757202 0.01818300038576126 0  -0.01705300062894821 0.01894900016486645 0  -0.01814999990165234 0.01854999922215939 0  -0.01668200083076954 0.01780599914491177 0  -0.01811500079929829 0.02293100021779537 0  -0.0164000000804662
[...]
<PointData  Vectors="velocity"> 
<DataArray  type="Float64"  Name="velocity"  NumberOfComponents="3" format="ascii">2.0210000220686197e-03 2.2360000293701887e-03 0.0000000000000000e+00  2.1869998890906572e-03 2.3680001031607389e-03 0.0000000000000000e+00  -2.2670000325888395e-03 7.5599999399855733e-04 0.0000000000000000e+00  -3.3279999624937773e-03 1.8169999821111560e-03 0.0000000000000000e+00  -9.6600002143532038e-04 2.3499999952036887e-04 0.0000000000000000e+00  4.5610000379383564e-03 4.5509999617934227e-03 0.0000000000000000e+00  5.6179999373853207e-03 5.4390002042055130e-03 0.0000000000000000e+00  9.5410002395510674e-03 8.5730003193020821e-03 0.0000000000000000e+00  6.7489999346435070e-03 6.3629997894167900e-03 0.0000000000000000e+00  7.8039998188614845e-03 7.2360001504421234e-03 0.0000000000000000e+00  -7.7899999450892210e-04 -6.5300002461299300e-04 0.0000000000000000e+00  2.2000000171829015e-04 -6.0999998822808266e-05 0.0000000000000000e+00  -7.5599999399855733e-04 -3.6400000681169331e-04 0.0000000000000000e+00  7.0700002834200859e-04 5.4799998179078102e-04 0.0000000000000000e+00  -7.4000000022351742e-03 -4.4185999780893326e-02 0.0000000000000000e+00  -3.6486998200416565e-02 4.4041998684406281e-02 0.0000000000000000e+00  -3.6017000675201416e-02 4.3572001159191132e-02 0.0000000000000000e+00  -4.1800001054070890e-04 -5.4025001823902130e-02 0.0000000000000000e+00  -1.5950000379234552e-03 -4.8776999115943909e-02 0.0000000000000000e+00  -3.2799999462440610e-04 -4.8392999917268753e-02 0.0000000000000000e+00  -3.0975999310612679e-02 4.0042001754045486e-02 0.0000000000000000e+00  -7.1833997964859009e-02 -8.0223999917507172e-02 0.0000000000000000e+00  -6.4621999859809875e-02 -7.4879996478557587e-02 0.0000000000000000e+00  -6.8689003586769104e-02 -8.4528997540473938e-02 0.0000000000000000e+00  -1.8626000732183456e-02 -6.3937999308109283e-02 0.0000000000000000e+00  -2.2595999762415886e-02 -7.0903003215789795e-02 0.0000000000000000e+00  -2.1469000726938248e-02 -6.3699997961521149e-02 0.0000000000000000e+00  -2.0814999938011169e-02 -7.1243003010749817e-02 0.0000000000000000e+00  3.0789999291300774e-03 3.0380000825971365e-03 0.0000000000000000e+00  6.9329999387264252e-03 6.3169999048113823e-03 0.0000000000000000e+00  6.1840000562369823e-03 5.5760000832378864e-03 0.0000000000000000e+00  6.4599998295307159e-03 5.6969998404383659e-03 0.0000000000000000e+00  3.1890000682324171e-03 3.0759999062865973e-03 0.0000000000000000e+00  9.9619999527931213e-03 8.4750000387430191e-03 0.0000000000000000e+00  1.1555000208318233e-02 9.9360002204775810e-03 0.0000000000000000e+00  1.5519999898970127e-02 1.2686000205576420e-02 0.0000000000000000e+00  1.4530999585986137e-02 1.1708999983966351e-02 0.0000000000000000e+00  4.2309998534619808e-03 4.1350000537931919e-03 0.0000000000000000e+00  -6.3979998230934143e-03 5.6269997730851173e-03 0.0000000000000000e+00  -5.2889999933540821e-03 3.7779998965561390e-03 0.0000000000000000e+00  -4.3370001949369907e-03 2.8250000905245543e-03 0.0000000000000000e+00  3.7110000848770142e-03 3.7209999281913042e-03 0.0000000000000000e+00  2.9829998966306448e-03 3.0879999976605177e-03 0.0000000000000000e+00  1.1187000200152397e-02 9.4020003452897072e-03 0.0000000000000000e+00  7.4029997922480106e-03 6.8620000965893269e-03 0.0000000000000000e+00  8.2229999825358391e-03 7.3279999196529388e-03 0.0000000000000000e+00  1.0374999605119228e-02 9.0370001271367073e-03 0.0000000000000000e+00  8.7989997118711472e-03 7.9779997467994690e-03 0.0000000000000000e+00  1.3105000369250774e-02 1.0940999723970890e-02 0.0000000000000000e+00  6.2164999544620514e-02 1.8711300194263458e-01 0.0000000000000000e+00  5.4000999778509140e-02 1.8153899908065796e-01 0.0000000000000000e+00  -2.2389000281691551e-02 2.4380000308156013e-02 0.0000000000000000e+00  1.1894399672746658e-01 2.4330100417137146e-01 0.0000000000000000e+00  1.1768200248479843e-01 2.3965199291706085e-01 0.0000000000000000e+00  1.1707600206136703e-01 2.4475300312042236e-01 0.0000000000000000e+00  -6.0051001608371735e-02 1.1115600168704987e-01 0.0000000000000000e+00  -4.5239001512527466e-02 1.2301500141620636e-01 0.0000000000000000e+00  -4.5207999646663666e-02 1.2658099830150604e-01 0.0000000000000000e+00  -7.3241002857685089e-02 9.6428997814655304e-02 0.0000000000000000e+00  -5.6232001632452011e-02 1.1075899749994278e-01 0.0000000000000000e+00  -6.2068000435829163e-02 -5.3066998720169067e-02 0.0000000000000000e+00  -6.5231002867221832e-02 -6.0008998960256577e-02 0.0000000000000000e+00  -5.4191000759601593e-02 -4.9180999398231506e-02 0.0000000000000000e+00  -5.7581998407840729e-02 -5.6269999593496323e-02 0.0000000000000000e+00  -7.2389999404549599e-03 2.7439999394118786e-03 0.0000000000000000e+00  -9.3400003388524055e-03 3.4800000139512122e-04 0.0000000000000000e+00  -1.2140999548137188e-02 1.2009999481961131e-03 0.0000000000000000e+00  -3.7246998399496078e-02 7.0052996277809143e-02 0.0000000000000000e+00  -3.3499998971819878e-03 1.4631999656558037e-02 0.0000000000000000e+00  -2.1523000672459602e-02 8.4717996418476105e-02 0.0000000000000000e+00  -2.3677000775933266e-02 8.3103001117706299e-02 0.0000000000000000e+00  -5.0353001803159714e-02 -3.1977001577615738e-02 0.0000000000000000e+00  -5.4878000169992447e-02 -3.7829000502824783e-02 0.0000000000000000e+00  -4.6720001846551895e-02 -2.7588000521063805e-02 0.0000000000000000e+00  -4.5575998723506927e-02 -2.6833999902009964e-02 0.0000000000000000e+00  -5.4274000227451324e-02 -3.6531001329421997e-02 0.0000000000000000e+00  -4.9166001379489899e-02 -3.1215999275445938e-02 0.0000000000000000e+00  -1.9201999530196190e-02 -3.4100000630132854e-04 0.0000000000000000e+00  -1.3690000399947166e-02 4.7559998929500580e-03 0.0000000000000000e+00  -1.5953000634908676e-02 1.9859999883919954e-03 0.0000000000000000e+00  -3.3688001334667206e-02 -1.3468000106513500e-02 0.0000000000000000e+00  -2.9304999858140945e-02 -9.9820001050829887e-03 0.0000000000000000e+00  -3.5967998206615448e-02 -1.7409000545740128e-02 0.0000000000000000e+00  -8.0963999032974243e-02 -1.5320999547839165e-02 0.0000000000000000e+00  -7.2172999382019043e-02 3.7539999466389418e-03 0.0000000000000000e+00  -8.4498003125190735e-02 -1.3302999548614025e-02 0.0000000000000000e+00  4.0842000395059586e-02 1.9993999972939491e-02 0.0000000000000000e+00  5.2273999899625778e-02 3.5190001130104065e-02 0.0000000000000000e+00  4.8994001001119614e-02 3.9005000144243240e-02 0.0000000000000000e+00  1.3598999939858913e-02 4.5329998247325420e-03 0.0000000000000000e+00  1.4290999621152878e-02 5.4549998603761196e-03 0.0000000000000000e+00  1.2873999774456024e-02 3.8079998921602964e-03 0.0000000000000000e+00  1.2117999605834484e-02 3.0519999563694000e-03 0.0000000000000000e+00  8.3109997212886810e-03 7.5599999399855733e-04 0.0000000000000000e+00  2.9900000663474202e-04 1.1670000385493040e-03 0.0000000000000000e+00  7.0730000734329224e-03 2.6000000070780516e-04 0.0000000000000000e+00  -9.7999996796716005e-05 8.8900001719594002e-04 0.0000000000000000e+00  1.5200000489130616e-03 2.1569998934864998e-03 0.0000000000000000e+00  -1.1000000085914508e-04 8.3799997810274363e-04 0.0000000000000000e+00  1.1401000432670116e-02 7.1780001744627953e-03 0.0000000000000000e+00  7.3899999260902405e-03 5.6010000407695770e-03 0.0000000000000000e+00  7.5679998844861984e-03 5.0160000100731850e-03 0.0000000000000000e+00  4.2090001516044140e-03 3.0469999182969332e-03 0.0000000000000000e+00  7.1930000558495522e-03 4.0799998678267002e-03 0.0000000000000000e+00  4.0319999679923058e-03 3.5250000655651093e-03 0.0000000000000000e+00  1.1613000184297562e-02 8.0970004200935364e-03 0.0000000000000000e+00  8.1139998510479927e-03 7.0030000060796738e-03 0.0000000000000000e+00  1.1843999847769737e-02 9.4659999012947083e-03 0.0000000000000000e+00  1.1926000006496906e-02 8.9849997311830521e-03 0.0000000000000000e+00  3.0670000705868006e-03 1.3859999598935246e-03 0.0000000000000000e+00  5.5264998227357864e-02 3.0381999909877777e-02 0.0000000000000000e+00  5.6182000786066055e-02 2.9492000117897987e-02 0.0000000000000000e+00  6.0674000531435013e-02 3.1328998506069183e-02 0.0000000000000000e+00  6.1962999403476715e-02 2.6047000661492348e-02 0.0000000000000000e+00  6.9540001451969147e-02 3.0363999307155609e-02 0.0000000000000000e+00  6.3794001936912537e-02 2.8150999918580055e-02 0.0000000000000000e+00  2.7199999894946814e-03 8.2700001075863838e-04 0.0000000000000000e+00  -9.5700001111254096e-04 -1.3010000111535192e-03 0.0000000000000000e+00  -6.2000000616535544e-04 -9.7799999639391899e-04 0.0000000000000000e+00  -7.6700001955032349e-04 -1.2059999862685800e-03 0.0000000000000000e+00  1.5038000419735909e-02 6.4519997686147690e-03 0.0000000000000000e+00  1.5866000205278397e-02 7.5550000183284283e-03 0.0000000000000000e+00  1.0464400053024292e-01 2.0762899518013000e-01 0.0000000000000000e+00  9.7090996801853180e-02 1.9239699840545654e-01 0.0000000000000000e+00  1.0488700121641159e-01 2.0565100014209747e-01 0.0000000000000000e+00  1.1086799949407578e-01 2.2008599340915680e-01 0.0000000000000000e+00  1.1880700290203094e-01 1.1516000330448151e-01 0.0000000000000000e+00  1.1768399924039841e-01 1.2372600287199020e-01 0.0000000000000000e+00  1.1051899939775467e-01 1.2302999943494797e-01 0.0000000000000000e+00  2.5096999481320381e-02 2.7334000915288925e-02 0.0000000000000000e+00  1.4477999880909920e-02 3.3798001706600189e-02 0.0000000000000000e+00  1.3251000083982944e-02 3.4288000315427780e-02 0.0000000000000000e+00  2.7736000716686249e-02 4.7882001847028732e-02 0.0000000000000000e+00  7.7439998276531696e-03 3.5509001463651657e-02 0.0000000000000000e+00  6.5589998848736286e-03 3.5509001463651657e-02 0.0000000000000000e+00  4.5735001564025879e-02 8.2744002342224121e-02 0.0000000000000000e+00  5.5126998573541641e-02 9.2141002416610718e-02 0.0000000000000000e+00  4.6245999634265900e-02 7.8050002455711365e-02 0.0000000000000000e+00  4.6840999275445938e-02 7.3817998170852661e-02 0.0000000000000000e+00  3.6444999277591705e-02 6.3842996954917908e-02 0.0000000000000000e+00  5.6396998465061188e-02 8.7686002254486084e-02 0.0000000000000000e+00  6.5058998763561249e-02 1.0149899870157242e-01 0.0000000000000000e+00  5.7732999324798584e-02 8.3621002733707428e-02 0.0000000000000000e+00  5.9544000774621964e-02 8.0118000507354736e-02 0.0000000000000000e+00  6.8750999867916107e-02 9.2703998088836670e-02 0.0000000000000000e+00  7.0816002786159515e-02 8.8680997490882874e-02 0.0000000000000000e+00  1.2166400253772736e-01 2.4416199326515198e-01 0.0000000000000000e+00  1.2347599864006042e-01 2.4901400506496429e-01 0.0000000000000000e+00  1.2255100160837173e-01 2.4461999535560608e-01 0.0000000000000000e+00  1.2471400201320648e-01 2.4937599897384644e-01 0.0000000000000000e+00  2.5165999308228493e-02 2.0112000405788422e-02 0.0000000000000000e+00  2.5418000295758247e-02 2.0617000758647919e-02 0.0000000000000000e+00  6.1599998734891415e-03 4.5099998824298382e-03 0.0000000000000000e+00  6.7679998464882374e-03 5.0099999643862247e-03 0.0000000000000000e+00  7.9527996480464935e-02 1.0032700002193451e-01 0.0000000000000000e+00  1.1587200313806534e-01 1.2657499313354492e-01 0.0000000000000000e+00  1.1845400184392929e-01 1.3173200190067291e-01 0.0000000000000000e+00  1.2186799943447113e-01 1.2621499598026276e-01 0.0000000000000000e+00  1.1243399977684021e-01 1.3203400373458862e-01 0.0000000000000000e+00  6.3055001199245453e-02 1.0588999837636948e-01 0.0000000000000000e+00  3.2758001238107681e-02 2.1717000752687454e-02 0.0000000000000000e+00  3.6044999957084656e-02 2.3982999846339226e-02 0.0000000000000000e+00  2.5824999436736107e-02 1.8324000760912895e-02 0.0000000000000000e+00  1.2551000714302063e-01 6.5604999661445618e-02 0.0000000000000000e+00  1.2921600043773651e-01 6.3840001821517944e-02 0.0000000000000000e+00  1.2028700113296509e-01 6.1067000031471252e-02 0.0000000000000000e+00  1.2423899769783020e-01 5.9365000575780869e-02 0.0000000000000000e+00  1.3235299289226532e-01 6.1119001358747482e-02 0.0000000000000000e+00  1.1793900281190872e-01 5.4889999330043793e-02 0.0000000000000000e+00  1.1407200247049332e-01 5.6430000811815262e-02 0.0000000000000000e+00  1.3447399437427521e-01 6.7865997552871704e-02 0.0000000000000000e+00  -3.1486999243497849e-02 4.0552999824285507e-02 0.0000000000000000e+00  -3.0590000096708536e-03 -4.9570001661777496e-02 0.0000000000000000e+00  -3.1955000013113022e-02 4.1021000593900681e-02 0.0000000000000000e+00  -1.8629999831318855e-03 -5.5126000195741653e-02 0.0000000000000000e+00  -3.7239999510347843e-03 -5.6513000279664993e-02 0.0000000000000000e+00  -4.7490000724792480e-03 -6.3373997807502747e-02 0.0000000000000000e+00  -5.5430000647902489e-03 -5.8529999107122421e-02 0.0000000000000000e+00  -3.4549999982118607e-03 -6.8806000053882599e-02 0.0000000000000000e+00  -5.9770001098513603e-03 -7.0307001471519470e-02 0.0000000000000000e+00  -6.8109999410808086e-03 -6.5035998821258545e-02 0.0000000000000000e+00  -3.0184000730514526e-02 3.9778001606464386e-02 0.0000000000000000e+00  -2.5572000071406364e-02 -6.3097998499870300e-02 0.0000000000000000e+00  -2.0976999774575233e-02 -5.6818000972270966e-02 0.0000000000000000e+00  -1.7796000465750694e-02 -1.2232000008225441e-02 0.0000000000000000e+00  -1.3762000016868114e-02 -1.0610000230371952e-02 0.0000000000000000e+00  -1.8277000635862350e-02 -1.5562999993562698e-02 0.0000000000000000e+00  -1.4538000337779522e-02 -1.4039999805390835e-02 0.0000000000000000e+00  -1.8340999260544777e-02 -1.8788000568747520e-02 0.0000000000000000e+00  -1.3705000281333923e-02 -1.6260000411421061e-03 0.0000000000000000e+00  -1.6997000202536583e-02 -2.5480000767856836e-03 0.0000000000000000e+00  -1.5593999996781349e-02 2.4399999529123306e-04 0.0000000000000000e+00  -6.1296001076698303e-02 -7.9025998711585999e-02 0.0000000000000000e+00  -5.1851999014616013e-02 -1.3071799278259277e-01 0.0000000000000000e+00  -5.6442998349666595e-02 -1.3480000197887421e-01 0.0000000000000000e+00  -5.8635998517274857e-02 -1.2941299378871918e-01 0.0000000000000000e+00  -6.5535001456737518e-02 -1.2753500044345856e-01 0.0000000000000000e+00  -6.3242003321647644e-02 -1.3282799720764160e-01 0.0000000000000000e+00  -3.0949000269174576e-02 -1.1360400170087814e-01 0.0000000000000000e+00  -2.8141999617218971e-02 -1.1271400004625320e-01 0.0000000000000000e+00  -3.0538000166416168e-02 -1.1964199692010880e-01 0.0000000000000000e+00  -3.3101998269557953e-02 -1.2632800638675690e-01 0.0000000000000000e+00  -2.9320999979972839e-02 -1.2523600459098816e-01 0.0000000000000000e+00  -2.4548999965190887e-02 -7.8350998461246490e-02 0.0000000000000000e+00  -2.6131000369787216e-02 -8.5677996277809143e-02 0.0000000000000000e+00  -2.2607000544667244e-02 -7.8422002494335175e-02 0.0000000000000000e+00  -1.9349999725818634e-02 -7.1120001375675201e-02 0.0000000000000000e+00  -6.9639999419450760e-03 -5.9386000037193298e-02 0.0000000000000000e+00  -7.8189997002482414e-03 -4.9784999340772629e-02 0.0000000000000000e+00  -8.9290002360939980e-03 -5.0262000411748886e-02 0.0000000000000000e+00  -6.9860001094639301e-03 6.6069997847080231e-03 0.0000000000000000e+00  -7.5550000183284283e-03 7.5550000183284283e-03 0.0000000000000000e+00  -7.9070003703236580e-03 8.2590002566576004e-03 0.0000000000000000e+00  -8.2860002294182777e-03 9.0180002152919769e-03 0.0000000000000000e+00  3.7050000391900539e-03 3.4580000210553408e-03 0.0000000000000000e+00  1.1014999821782112e-02 9.6559999510645866e-03 0.0000000000000000e+00  1.3980999588966370e-02 1.1691999621689320e-02 0.0000000000000000e+00  7.7229999005794525e-03 7.1140001527965069e-03 0.0000000000000000e+00  -5.8269998989999294e-03 4.6749999746680260e-03 0.0000000000000000e+00  2.4669999256730080e-03 -7.5599999399855733e-04 0.0000000000000000e+00  1.5930000226944685e-03 1.9049999536946416e-03 0.0000000000000000e+00  1.5109999803826213e-03 -7.5599999399855733e-04 0.0000000000000000e+00  3.4479999449104071e-03 -7.5599999399855733e-04 0.0000000000000000e+00  1.1690000072121620e-02 1.0088999755680561e-02 0.0000000000000000e+00  1.4658999629318714e-02 1.1691000312566757e-02 0.0000000000000000e+00  1.9710000604391098e-02 1.4321000315248966e-02 0.0000000000000000e+00  1.8030999228358269e-02 1.3819999992847443e-02 0.0000000000000000e+00  5.0714999437332153e-02 2.7946999296545982e-02 0.0000000000000000e+00  4.9375999718904495e-02 2.8675999492406845e-02 0.0000000000000000e+00  4.4201001524925232e-02 2.5512000545859337e-02 0.0000000000000000e+00  1.1288999579846859e-02 6.2979999929666519e-03 0.0000000000000000e+00  2.1390000358223915e-02 9.9569996818900108e-03 0.0000000000000000e+00  2.7204999700188637e-02 1.2237000279128551e-02 0.0000000000000000e+00  2.8193000704050064e-02 1.3383000157773495e-02 0.0000000000000000e+00  2.0292999222874641e-02 8.8219996541738510e-03 0.0000000000000000e+00  1.5336999669671059e-02 6.9559998810291290e-03 0.0000000000000000e+00  3.3270001411437988e-02 1.4754000119864941e-02 0.0000000000000000e+00  3.9337001740932465e-02 1.7426000908017159e-02 0.0000000000000000e+00  4.0855001658201218e-02 1.8789000809192657e-02 0.0000000000000000e+00  1.1011499911546707e-01 2.1592999994754791e-01 0.0000000000000000e+00  1.0678400099277496e-01 2.0619699358940125e-01 0.0000000000000000e+00  1.1185300350189209e-01 2.2023899853229523e-01 0.0000000000000000e+00  1.1805199831724167e-01 2.3771299421787262e-01 0.0000000000000000e+00  1.1884900182485580e-01 2.3766000568866730e-01 0.0000000000000000e+00  1.2264300137758255e-01 2.4463999271392822e-01 0.0000000000000000e+00  1.1699800193309784e-01 2.5030100345611572e-01 0.0000000000000000e+00  1.1953199654817581e-01 2.5227400660514832e-01 0.0000000000000000e+00  1.1293599754571915e-01 2.4931000173091888e-01 0.0000000000000000e+00  -2.1910000592470169e-02 2.3421000689268112e-02 0.0000000000000000e+00  1.1195100098848343e-01 2.4932800233364105e-01 0.0000000000000000e+00  1.0753700137138367e-01 2.4909999966621399e-01 0.0000000000000000e+00  1.1368999630212784e-01 2.5142100453376770e-01 0.0000000000000000e+00  1.1770699918270111e-01 2.5143399834632874e-01 0.0000000000000000e+00  1.1485400050878525e-01 2.4939900636672974e-01 0.0000000000000000e+00  1.1649200320243835e-01 2.4785099923610687e-01 0.0000000000000000e+00  1.2706400454044342e-01 2.5425699353218079e-01 0.0000000000000000e+00  1.2524999678134918e-01 2.4953800439834595e-01 0.0000000000000000e+00  1.2788200378417969e-01 2.5423601269721985e-01 0.0000000000000000e+00  1.2540499866008759e-01 2.4938400089740753e-01 0.0000000000000000e+00  1.2036100029945374e-01 2.4382999539375305e-01 0.0000000000000000e+00  1.1935800313949585e-01 2.4798800051212311e-01 0.0000000000000000e+00  1.2115799635648727e-01 2.5208699703216553e-01 0.0000000000000000e+00  1.1921299993991852e-01 2.5315800309181213e-01 0.0000000000000000e+00  1.1940100044012070e-01 2.5444099307060242e-01 0.0000000000000000e+00  1.2277600169181824e-01 2.5432100892066956e-01 0.0000000000000000e+00  1.2163200229406357e-01 2.4816399812698364e-01 0.0000000000000000e+00  -9.7231999039649963e-02 6.4124003052711487e-02 0.0000000000000000e+00  -1.0597199946641922e-01 4.8402000218629837e-02 0.0000000000000000e+00  -9.8140001296997070e-02 5.8653999119997025e-02 0.0000000000000000e+00  -6.0577999800443649e-02 1.0204999893903732e-01 0.0000000000000000e+00  -7.1162998676300049e-02 9.5113001763820648e-02 0.0000000000000000e+00  -7.6727002859115601e-02 8.6070001125335693e-02 0.0000000000000000e+00  -8.5978999733924866e-02 8.0228000879287720e-02 0.0000000000000000e+00  -5.4884999990463257e-02 -3.9949998259544373e-02 0.0000000000000000e+00  -4.5366998761892319e-02 -2.9800999909639359e-02 0.0000000000000000e+00  -5.0882998853921890e-02 -3.3762000501155853e-02 0.0000000000000000e+00  -5.9280000627040863e-02 -4.4105000793933868e-02 0.0000000000000000e+00  -7.1203999221324921e-02 -6.3831999897956848e-02 0.0000000000000000e+00  -7.7304996550083160e-02 -8.9891001582145691e-02 0.0000000000000000e+00  -7.8524000942707062e-02 -9.1133996844291687e-02 0.0000000000000000e+00  -8.4541000425815582e-02 -9.8454996943473816e-02 0.0000000000000000e+00  -4.9823001027107