<?xml version="1.0"?>
<VTKFile type="UnstructuredGrid"  version="0.1"  >
<UnstructuredGrid>
<Piece  NumberOfPoints="6340" NumberOfCells="12376">
<Points>
<DataArray  type="Float64"  NumberOfComponents="3"  format="ascii">-0.01909800060093403 0.02062799967825413 0  -0.01968800090253353 0.02122299931943417 0  -0.01992999948561192 0.02026000060141087 0  -0.02038699947297573 0.0209100004285574 0  -0.01933800056576729 0.01971600018441677 0  -0.01892399974167347 0.02149300090968609 0  -0.01934299990534782 0.022172000259161 0  -0.01889700070023537 0.02300100028514862 0  -0.01972500048577785 0.02283399924635887 0  -0.01848400011658669 0.02222700044512749 0  -0.008927999995648861 0.01768800057470798 0  -0.00953499972820282 0.01859699934720993 0  -0.009868999943137169 0.0176599994301796 0  -0.01048200018703938 0.01861000061035156 0  -0.02426300011575222 0.07033400237560272 0  -0.0251650009304285 0.07057200372219086 0  -0.02530200034379959 0.06981699913740158 0  -0.02443699911236763 0.0641539990901947 0  -0.02507600001990795 0.06472499668598175 0  -0.02521299943327904 0.06385499984025955 0  -0.02593999914824963 0.06413999944925308 0  -0.01226499956101179 0.08279299736022949 0  -0.01309499982744455 0.08255600184202194 0  -0.01251699961721897 0.08206000179052353 0  -0.01875299960374832 0.07674100250005722 0  -0.01781800016760826 0.0770379975438118 0  -0.01831999979913235 0.07758600264787674 0  -0.01825599931180477 0.07618500292301178 0  -0.02114799991250038 0.02396900020539761 0  -0.02038099989295006 0.02422500029206276 0  -0.02067600004374981 0.02486900053918362 0  -0.0209330003708601 0.02552900090813637 0  -0.02145599946379662 0.02462100051343441 0  -0.01990200020372868 0.02512999996542931 0  -0.01958999969065189 0.02440799959003925 0  -0.01878600008785725 0.02456999942660332 0  -0.01911100000143051 0.02529699914157391 0  -0.02085000090301037 0.02330699935555458 0  -0.02168500050902367 0.02308399975299835 0  -0.02122999913990498 0.02211000025272369 0  -0.02081999927759171 0.021526999771595 0  -0.0205290000885725 0.02258599922060966 0  -0.02010699920356274 0.02191199921071529 0  -0.0160949993878603 0.02202500030398369 0  -0.01658600009977818 0.02114400081336498 0  -0.0156870000064373 0.0211389996111393 0  -0.01692499965429306 0.02212299965322018 0  -0.01774699985980988 0.02208299934864044 0  -0.01727999933063984 0.02297000028192997 0  0.03957799822092056 0.07635100185871124 0  0.03937600180506706 0.07547199726104736 0  0.04057500138878822 0.07554300129413605 0  0.04092700034379959 0.08661700040102005 0  0.04163600131869316 0.086837999522686 0  0.04055999964475632 0.0872810035943985 0  0.0232319999486208 0.09441199898719788 0  0.02347300015389919 0.09372899681329727 0  0.0242919996380806 0.09397599846124649 0  0.02225800044834614 0.09481299668550491 0  0.02250799909234047 0.09398800134658813 0  -0.008221999742090702 0.09064500033855438 0  -0.007426999974995852 0.09094899892807007 0  -0.008046999573707581 0.09142400324344635 0  -0.007240000180900097 0.09173399955034256 0  -0.01812699995934963 0.08888900279998779 0  -0.01837999932467937 0.08826600015163422 0  -0.01744399964809418 0.08858899772167206 0  -0.01899899914860725 0.08882000297307968 0  -0.01582200080156326 0.09426400065422058 0  -0.01616100035607815 0.09488999843597412 0  -0.01651700027287006 0.09419199824333191 0  -0.0113359997048974 0.0889350026845932 0  -0.01058799959719181 0.0891600027680397 0  -0.01120200008153915 0.08964599668979645 0  -0.01209700014442205 0.08871900290250778 0  -0.01148299966007471 0.08823499828577042 0  -0.01224400009959936 0.088018998503685 0  -0.0146890003234148 0.08992200344800949 0  -0.01526399981230497 0.09038999676704407 0  -0.01549000013619661 0.08968900144100189 0  -0.01347499992698431 0.08898100256919861 0  -0.01426700036972761 0.08876500278711319 0  -0.0136470003053546 0.08828900009393692 0  0.01008099969476461 0.0889739990234375 0  0.0110700000077486 0.0888810008764267 0  0.01042800024151802 0.08953899890184402 0  0.007457999978214502 0.07785400003194809 0  0.008008000440895557 0.07703600078821182 0  0.008445000275969505 0.0777600035071373 0  -0.008679999969899654 0.01676999963819981 0  -0.007911000400781631 0.01693199947476387 0  -0.00949500035494566 0.01670599915087223 0  -0.01034600008279085 0.01663899980485439 0  -0.01374000031501055 0.01679999940097332 0  -0.01393000036478043 0.01790899969637394 0  -0.01451599970459938 0.01702900044620037 0  -0.01318600028753281 0.0176829993724823 0  -0.01317800022661686 0.01873200014233589 0  -0.01241999957710505 0.01781200058758259 0  -0.01264800038188696 0.02168099954724312 0  -0.01312300004065037 0.02073300071060658 0  -0.01226199977099895 0.02072999998927116 0  -0.01185700017958879 0.01982700079679489 0  -0.01131999958306551 0.02065300010144711 0  -0.01274100039154291 0.01974299922585487 0  -0.01350999996066093 0.02173599973320961 0  -0.01483900006860495 0.02100900001823902 0  -0.01522400043904781 0.02197599969804287 0  -0.01437299977988005 0.02185999974608421 0  -0.009975000284612179 0.01954199932515621 0  -0.011311000213027 0.03075399994850159 0  -0.01180300023406744 0.02989500015974045 0  -0.01090199965983629 0.02979999966919422 0  -0.006293999962508678 0.02918699942529202 0  -0.00672800000756979 0.03017299994826317 0  -0.007224999833852053 0.02932400070130825 0  -0.009069000370800495 0.01954399980604649 0  -0.006763000041246414 0.018800999969244 0  -0.007681999821215868 0.01871000044047832 0  -0.006978999823331833 0.01795100048184395 0  -0.007079999893903732 0.01710600033402443 0  -0.006159999873489141 0.01730000041425228 0  0.04315999895334244 0.08338099718093872 0  0.0439779981970787 0.08275400102138519 0  0.04369800165295601 0.08395799994468689 0  0.04268800094723701 0.08420100063085556 0  0.0146270003169775 0.05732399970293045 0  0.01562600024044514 0.05705900117754936 0  0.01523400004953146 0.05801000073552132 0  0.02673999965190887 0.04042600095272064 0  0.02711799927055836 0.03932299837470055 0  0.02763699926435947 0.03995300084352493 0  0.0291569996625185 0.04414800181984901 0  0.02999399974942207 0.04333899915218353 0  0.03038300015032291 0.04400999844074249 0  0.02915900014340878 0.04756899923086166 0  0.02824999950826168 0.04779800027608871 0  0.02869899943470955 0.04679499939084053 0  0.02821199968457222 0.04606800153851509 0  0.02918899990618229 0.04578899964690208 0  0.02774799987673759 0.04705899953842163 0  0.02730700001120567 0.0480480007827282 0  0.02721999958157539 0.04636299982666969 0  0.02662999927997589 0.04570500180125237 0  0.02621899917721748 0.04664799943566322 0  0.0256120003759861 0.04598499834537506 0  0.04048600047826767 0.08549600094556808 0  0.03946100175380707 0.08559499680995941 0  0.04011299833655357 0.08494500070810318 0  0.03911300003528595 0.08501899987459183 0  0.005677000153809786 0.02292999997735023 0  0.006351000163704157 0.02336099930107594 0  0.005721000023186207 0.02402699925005436 0  0.006450999993830919 0.02434599958360195 0  0.02521100081503391 0.04692799970507622 0  0.02140000090003014 0.04962199926376343 0  0.02100500091910362 0.05057099834084511 0  0.02039200067520142 0.04988300055265427 0  0.02200699970126152 0.05031000077724457 0  0.02783199958503246 0.04878599941730499 0  0.01582599990069866 0.03352700173854828 0  0.01500300038605928 0.03346100077033043 0  0.01534599997103214 0.03251900151371956 0  0.01103900000452995 0.03929499909281731 0  0.01019799988716841 0.03935199975967407 0  0.0105790002271533 0.03841400146484375 0  0.009736999869346619 0.0384720005095005 0  0.009356000460684299 0.03940900042653084 0  0.009278999641537666 0.03758800029754639 0  0.01011900044977665 0.03753399848937988 0  0.01065799966454506 0.04023399949073792 0  -0.02587899938225746 0.0649619996547699 0  -0.02485799975693226 0.06554599851369858 0  -0.02582300081849098 0.0657150000333786 0  -0.02416799962520599 0.0650549978017807 0  -0.02385500073432922 0.06590399891138077 0  -0.02288299985229969 0.06625699996948242 0  -0.02338599972426891 0.06683199852705002 0  -0.02228699997067451 0.06571699678897858 0  -0.02192799933254719 0.06659100204706192 0  -0.02246800065040588 0.06715600192546844 0  -0.02596800029277802 0.063291996717453 0  -0.01789700053632259 0.07841800153255463 0  -0.01881900057196617 0.07813200354576111 0  -0.01803299970924854 0.08576499670743942 0  -0.01886899955570698 0.08556199818849564 0  -0.01827600039541721 0.08506199717521667 0  -0.01910899952054024 0.08486299961805344 0  -0.01852199994027615 0.0843529999256134 0  -0.01748800091445446 0.08794599771499634 0  -0.01670099981129169 0.08815199881792068 0  -0.01658199913799763 0.08881200104951859 0  -0.01336199976503849 0.08181300014257431 0  -0.01073599979281425 0.07716099917888641 0  -0.00980599969625473 0.0774570032954216 0  -0.01032199990004301 0.07799399644136429 0  -0.009956999681890011 0.07879900187253952 0  -0.009421000257134438 0.07827299833297729 0  -0.01445799972862005 0.07447499781847 0  -0.01491499971598387 0.07357200235128403 0  -0.0139769995585084 0.07388599961996078 0  -0.0130390003323555 0.07419999688863754 0  -0.01348299998790026 0.07329700142145157 0  -0.01731899939477444 0.07648699730634689 0  -0.01683600060641766 0.07591400295495987 0  -0.01777799986302853 0.07560399919748306 0  -0.01872099936008453 0.07529500126838684 0  -0.02303499914705753 0.0677189975976944 0  -0.02365499921143055 0.06978800147771835 0  -0.02328299917280674 0.07066500186920166 0  -0.02192699909210205 0.02360099926590919 0  -0.0221599992364645 0.02410000003874302 0  -0.02231100015342236 0.02457999996840954 0  -0.02247500047087669 0.02509699948132038 0  -0.02168199978768826 0.0253090001642704 0  -0.01925499923527241 0.02369699999690056 0  -0.01844399981200695 0.02384999953210354 0  -0.02007099986076355 0.02351499907672405 0  -0.02145100012421608 0.0225830003619194 0  -0.01754599995911121 0.01830700039863586 0  -0.01717800088226795 0.01906999945640564 0  -0.01820999942719936 0.01868000067770481 0  -0.0168639998883009 0.0179239995777607 0  -0.01805900037288666 0.02303400076925755 0  -0.01646099984645844
[...]
<PointData  Vectors="velocity"> 
<DataArray  type="Float64"  Name="velocity"  NumberOfComponents="3" format="ascii">4.0259999223053455e-03 3.7279999814927578e-03 0.0000000000000000e+00  4.4669997878372669e-03 4.1439998894929886e-03 0.0000000000000000e+00  -2.2670000325888395e-03 -7.5599999399855733e-04 0.0000000000000000e+00  -3.0630000401288271e-03 -7.5599999399855733e-04 0.0000000000000000e+00  -1.7460000235587358e-03 -1.0160000529140234e-03 0.0000000000000000e+00  8.3219995722174644e-03 7.3270001448690891e-03 0.0000000000000000e+00  1.0050999931991100e-02 8.7679997086524963e-03 0.0000000000000000e+00  1.6023999080061913e-02 1.3163999654352665e-02 0.0000000000000000e+00  1.1405000463128090e-02 9.8519995808601379e-03 0.0000000000000000e+00  1.3585000298917294e-02 1.1296000331640244e-02 0.0000000000000000e+00  1.6609999584034085e-03 1.1239999439567327e-03 0.0000000000000000e+00  5.4330001585185528e-03 3.0290000140666962e-03 0.0000000000000000e+00  2.1329999435693026e-03 1.2789999600499868e-03 0.0000000000000000e+00  5.5340002290904522e-03 3.1850000377744436e-03 0.0000000000000000e+00  -7.1020000614225864e-03 -3.6708999425172806e-02 0.0000000000000000e+00  -1.9153999164700508e-02 7.5550000183284283e-03 0.0000000000000000e+00  -1.9388999789953232e-02 7.5550000183284283e-03 0.0000000000000000e+00  7.0500001311302185e-04 -3.8578998297452927e-02 0.0000000000000000e+00  -1.9580000080168247e-03 -3.5177998244762421e-02 0.0000000000000000e+00  -3.4999998752027750e-04 -3.4049000591039658e-02 0.0000000000000000e+00  -2.1153999492526054e-02 6.0439999215304852e-03 0.0000000000000000e+00  -4.0786001831293106e-02 -6.7382000386714935e-02 0.0000000000000000e+00  -3.8562998175621033e-02 -6.4002998173236847e-02 0.0000000000000000e+00  -3.9466001093387604e-02 -6.8580001592636108e-02 0.0000000000000000e+00  -1.7767999321222305e-02 -5.4049000144004822e-02 0.0000000000000000e+00  -1.9950000569224358e-02 -5.8347001671791077e-02 0.0000000000000000e+00  -1.9553000107407570e-02 -5.3817998617887497e-02 0.0000000000000000e+00  -1.8022000789642334e-02 -5.8506000787019730e-02 0.0000000000000000e+00  5.1469998434185982e-03 4.5420001260936260e-03 0.0000000000000000e+00  9.9729998037219048e-03 8.3919996395707130e-03 0.0000000000000000e+00  9.8550003021955490e-03 8.1960000097751617e-03 0.0000000000000000e+00  9.7610000520944595e-03 8.0089997500181198e-03 0.0000000000000000e+00  5.4970001801848412e-03 4.7920001670718193e-03 0.0000000000000000e+00  1.4581999741494656e-02 1.1551000177860260e-02 0.0000000000000000e+00  1.5771999955177307e-02 1.2659999541938305e-02 0.0000000000000000e+00  2.2515999153256416e-02 1.7215000465512276e-02 0.0000000000000000e+00  2.0000999793410301e-02 1.5112999826669693e-02 0.0000000000000000e+00  5.8530000969767570e-03 5.2359998226165771e-03 0.0000000000000000e+00  -5.6429998949170113e-03 -7.5599999399855733e-04 0.0000000000000000e+00  -4.5329998247325420e-03 -7.5599999399855733e-04 0.0000000000000000e+00  -3.8189999759197235e-03 -7.5599999399855733e-04 0.0000000000000000e+00  6.5179998055100441e-03 5.9250001795589924e-03 0.0000000000000000e+00  5.7319998741149902e-03 5.2600000053644180e-03 0.0000000000000000e+00  1.8851999193429947e-02 1.3763000257313251e-02 0.0000000000000000e+00  1.2897999957203865e-02 1.0110000148415565e-02 0.0000000000000000e+00  1.4543999917805195e-02 1.0776000097393990e-02 0.0000000000000000e+00  1.7627999186515808e-02 1.3478999957442284e-02 0.0000000000000000e+00  1.5131000429391861e-02 1.2156999669969082e-02 0.0000000000000000e+00  2.2064000368118286e-02 1.6592999920248985e-02 0.0000000000000000e+00  8.9584000408649445e-02 1.7505800724029541e-01 0.0000000000000000e+00  8.1046000123023987e-02 1.6883300244808197e-01 0.0000000000000000e+00  -2.9392000287771225e-02 6.0439999215304852e-03 0.0000000000000000e+00  1.5047900378704071e-01 2.4435999989509583e-01 0.0000000000000000e+00  1.4698499441146851e-01 2.3620200157165527e-01 0.0000000000000000e+00  1.5035599470138550e-01 2.4940200150012970e-01 0.0000000000000000e+00  -8.2800001837313175e-04 1.1788000166416168e-01 0.0000000000000000e+00  1.2032000347971916e-02 1.3018499314785004e-01 0.0000000000000000e+00  1.2838000431656837e-02 1.3570000231266022e-01 0.0000000000000000e+00  -1.3032999821007252e-02 1.0129100084304810e-01 0.0000000000000000e+00  1.7509999452158809e-03 1.1582499742507935e-01 0.0000000000000000e+00  -4.2038999497890472e-02 -6.6974997520446777e-02 0.0000000000000000e+00  -4.4344998896121979e-02 -7.1486003696918488e-02 0.0000000000000000e+00  -4.1328001767396927e-02 -6.5549999475479126e-02 0.0000000000000000e+00  -4.3721001595258713e-02 -7.0155002176761627e-02 0.0000000000000000e+00  -1.0276000015437603e-02 -1.5256999991834164e-02 0.0000000000000000e+00  -1.0267999954521656e-02 -1.5819000080227852e-02 0.0000000000000000e+00  -1.2601000256836414e-02 -1.8495999276638031e-02 0.0000000000000000e+00  -2.6215000078082085e-02 7.5369998812675476e-03 0.0000000000000000e+00  -9.5180002972483635e-03 -1.1719999834895134e-02 0.0000000000000000e+00  -3.5324998199939728e-02 2.2160001099109650e-03 0.0000000000000000e+00  -3.4247998148202896e-02 3.0239999759942293e-03 0.0000000000000000e+00  -3.5303000360727310e-02 -5.0965998321771622e-02 0.0000000000000000e+00  -3.7172999233007431e-02 -5.5233001708984375e-02 0.0000000000000000e+00  -3.2776001840829849e-02 -4.9182001501321793e-02 0.0000000000000000e+00  -3.3318001776933670e-02 -4.6512000262737274e-02 0.0000000000000000e+00  -3.6621998995542526e-02 -5.2503000944852829e-02 0.0000000000000000e+00  -3.4239001572132111e-02 -4.8220001161098480e-02 0.0000000000000000e+00  -1.9546000286936760e-02 -2.6537999510765076e-02 0.0000000000000000e+00  -1.6921000555157661e-02 -2.2458000108599663e-02 0.0000000000000000e+00  -1.7191000282764435e-02 -2.3516999557614326e-02 0.0000000000000000e+00  -2.5957999750971794e-02 -3.6837998777627945e-02 0.0000000000000000e+00  -2.3776000365614891e-02 -3.2726999372243881e-02 0.0000000000000000e+00  -2.8287999331951141e-02 -3.8492999970912933e-02 0.0000000000000000e+00  -7.5219999998807907e-03 7.1689998731017113e-03 0.0000000000000000e+00  1.4430000446736813e-03 2.3582000285387039e-02 0.0000000000000000e+00  -1.3608000241219997e-02 7.3400000110268593e-03 0.0000000000000000e+00  1.0921300202608109e-01 5.2777998149394989e-02 0.0000000000000000e+00  1.1434499919414520e-01 6.4081996679306030e-02 0.0000000000000000e+00  1.1668699979782104e-01 6.5924003720283508e-02 0.0000000000000000e+00  7.5550000183284283e-03 2.2670000325888395e-03 0.0000000000000000e+00  8.2470001652836800e-03 2.9579999390989542e-03 0.0000000000000000e+00  7.0719998329877853e-03 2.0250000525265932e-03 0.0000000000000000e+00  6.5680001862347126e-03 1.7729999963194132e-03 0.0000000000000000e+00  3.7779998965561390e-03 0.0000000000000000e+00 0.0000000000000000e+00  2.6509999297559261e-03 2.0379999186843634e-03 0.0000000000000000e+00  3.0350000597536564e-03 -2.4799999664537609e-04 0.0000000000000000e+00  2.2090000566095114e-03 1.6070000128820539e-03 0.0000000000000000e+00  5.5550001561641693e-03 3.8560000248253345e-03 0.0000000000000000e+00  2.7250000275671482e-03 1.8350000027567148e-03 0.0000000000000000e+00  2.0153999328613281e-02 1.1795000173151493e-02 0.0000000000000000e+00  1.4166000299155712e-02 8.9400000870227814e-03 0.0000000000000000e+00  1.4751999638974667e-02 8.7369997054338455e-03 0.0000000000000000e+00  1.0312999598681927e-02 6.1630001291632652e-03 0.0000000000000000e+00  1.4564000070095062e-02 8.1000002101063728e-03 0.0000000000000000e+00  9.5779998227953911e-03 6.1369999311864376e-03 0.0000000000000000e+00  2.0403999835252762e-02 1.2672999873757362e-02 0.0000000000000000e+00  1.4840999618172646e-02 1.0456000454723835e-02 0.0000000000000000e+00  2.0137000828981400e-02 1.3930999673902988e-02 0.0000000000000000e+00  2.0630000159144402e-02 1.3544999994337559e-02 0.0000000000000000e+00  9.2550003901124001e-03 4.9729999154806137e-03 0.0000000000000000e+00  6.4779996871948242e-02 4.3917998671531677e-02 0.0000000000000000e+00  6.7335002124309540e-02 4.1421998292207718e-02 0.0000000000000000e+00  7.2434999048709869e-02 4.5269001275300980e-02 0.0000000000000000e+00  7.8285001218318939e-02 4.6427998691797256e-02 0.0000000000000000e+00  8.1332996487617493e-02 5.1477000117301941e-02 0.0000000000000000e+00  8.0935999751091003e-02 4.9052000045776367e-02 0.0000000000000000e+00  9.2700002714991570e-03 4.7479998320341110e-03 0.0000000000000000e+00  4.3279998935759068e-03 2.0729999523609877e-03 0.0000000000000000e+00  4.8770001158118248e-03 2.5150000583380461e-03 0.0000000000000000e+00  1.0849999962374568e-03 8.1599998520687222e-04 0.0000000000000000e+00  8.9940000325441360e-03 3.7060000468045473e-03 0.0000000000000000e+00  9.8219998180866241e-03 4.5329998247325420e-03 0.0000000000000000e+00  1.2490899860858917e-01 1.8682199716567993e-01 0.0000000000000000e+00  1.1368499696254730e-01 1.6497099399566650e-01 0.0000000000000000e+00  1.2403900176286697e-01 1.8278199434280396e-01 0.0000000000000000e+00  1.3362300395965576e-01 2.0400699973106384e-01 0.0000000000000000e+00  1.1120299994945526e-01 1.2512199580669403e-01 0.0000000000000000e+00  1.1420600116252899e-01 1.3395699858665466e-01 0.0000000000000000e+00  1.0149600356817245e-01 1.3325999677181244e-01 0.0000000000000000e+00  2.5004999712109566e-02 2.6356000453233719e-02 0.0000000000000000e+00  2.3343000560998917e-02 2.0953999832272530e-02 0.0000000000000000e+00  2.2607000544667244e-02 2.1445000544190407e-02 0.0000000000000000e+00  2.9642999172210693e-02 4.6741001307964325e-02 0.0000000000000000e+00  1.7829999327659607e-02 2.3685000836849213e-02 0.0000000000000000e+00  1.6882000491023064e-02 2.3922000080347061e-02 0.0000000000000000e+00  4.9989998340606689e-02 8.6773000657558441e-02 0.0000000000000000e+00  6.1593998223543167e-02 9.7892001271247864e-02 0.0000000000000000e+00  5.1128998398780823e-02 8.1266999244689941e-02 0.0000000000000000e+00  5.2365001291036606e-02 7.6406002044677734e-02 0.0000000000000000e+00  3.9721999317407608e-02 6.4834997057914734e-02 0.0000000000000000e+00  6.3755996525287628e-02 9.2593997716903687e-02 0.0000000000000000e+00  7.4013002216815948e-02 1.0855499655008316e-01 0.0000000000000000e+00  6.5920002758502960e-02 8.7852999567985535e-02 0.0000000000000000e+00  6.8658001720905304e-02 8.3844996988773346e-02 0.0000000000000000e+00  7.9710997641086578e-02 9.8360002040863037e-02 0.0000000000000000e+00  8.2934997975826263e-02 9.3620002269744873e-02 0.0000000000000000e+00  1.5278199315071106e-01 2.4569299817085266e-01 0.0000000000000000e+00  1.5732400119304657e-01 2.5703400373458862e-01 0.0000000000000000e+00  1.5395499765872955e-01 2.4743600189685822e-01 0.0000000000000000e+00  1.5883299708366394e-01 2.5848400592803955e-01 0.0000000000000000e+00  1.9356999546289444e-02 1.2844000011682510e-02 0.0000000000000000e+00  1.9860999658703804e-02 1.2844000011682510e-02 0.0000000000000000e+00  2.9589999467134476e-03 3.6520001012831926e-03 0.0000000000000000e+00  3.2679999712854624e-03 3.8459999486804008e-03 0.0000000000000000e+00  9.3030996620655060e-02 1.0727600008249283e-01 0.0000000000000000e+00  1.3438099622726440e-01 1.3546900451183319e-01 0.0000000000000000e+00  1.3627000153064728e-01 1.4065000414848328e-01 0.0000000000000000e+00  1.4048600196838379e-01 1.3429400324821472e-01 0.0000000000000000e+00  1.2991400063037872e-01 1.4174899458885193e-01 0.0000000000000000e+00  7.0664003491401672e-02 1.1388699710369110e-01 0.0000000000000000e+00  3.1360000371932983e-02 2.2819999605417252e-02 0.0000000000000000e+00  3.4736000001430511e-02 2.5247000157833099e-02 0.0000000000000000e+00  2.3137999698519707e-02 1.8812000751495361e-02 0.0000000000000000e+00  1.4006699621677399e-01 7.0027001202106476e-02 0.0000000000000000e+00  1.4385199546813965e-01 6.8401999771595001e-02 0.0000000000000000e+00  1.3323700428009033e-01 6.5373003482818604e-02 0.0000000000000000e+00  1.3720899820327759e-01 6.3920997083187103e-02 0.0000000000000000e+00  1.4688600599765778e-01 6.5935999155044556e-02 0.0000000000000000e+00  1.2918600440025330e-01 5.9427998960018158e-02 0.0000000000000000e+00  1.2503799796104431e-01 6.0694999992847443e-02 0.0000000000000000e+00  1.4926800131797791e-01 7.2801999747753143e-02 0.0000000000000000e+00  -2.0898999646306038e-02 6.3000000081956387e-03 0.0000000000000000e+00  -3.3370000310242176e-03 -3.6708999425172806e-02 0.0000000000000000e+00  -2.0664999261498451e-02 6.5339999273419380e-03 0.0000000000000000e+00  -1.0319999419152737e-03 -4.0624000132083893e-02 0.0000000000000000e+00  -2.6420000940561295e-03 -4.2624000459909439e-02 0.0000000000000000e+00  -2.2809999063611031e-03 -4.8675000667572021e-02 0.0000000000000000e+00  -3.2530000898987055e-03 -4.5063000172376633e-02 0.0000000000000000e+00  2.0399999630171806e-04 -5.2436999976634979e-02 0.0000000000000000e+00  -2.1389999892562628e-03 -5.4644998162984848e-02 0.0000000000000000e+00  -3.2130000181496143e-03 -5.0693999975919724e-02 0.0000000000000000e+00  -2.1417999640107155e-02 5.7799997739493847e-03 0.0000000000000000e+00  -2.1273000165820122e-02 -5.3394999355077744e-02 0.0000000000000000e+00  -1.8891999498009682e-02 -4.9290001392364502e-02 0.0000000000000000e+00  -1.6070999205112457e-02 -2.4985000491142273e-02 0.0000000000000000e+00  -1.3763000257313251e-02 -2.2469000890851021e-02 0.0000000000000000e+00  -1.7613999545574188e-02 -2.6801999658346176e-02 0.0000000000000000e+00  -1.5212999656796455e-02 -2.4057999253273010e-02 0.0000000000000000e+00  -1.8082000315189362e-02 -2.8365999460220337e-02 0.0000000000000000e+00  -1.4825999736785889e-02 -2.0434999838471413e-02 0.0000000000000000e+00  -1.6874000430107117e-02 -2.2903999313712120e-02 0.0000000000000000e+00  -1.4851000159978867e-02 -2.1021999418735504e-02 0.0000000000000000e+00  -3.7080999463796616e-02 -6.5300002694129944e-02 0.0000000000000000e+00  -2.7409000322222710e-02 -8.4590002894401550e-02 0.0000000000000000e+00  -2.7052000164985657e-02 -8.4372997283935547e-02 0.0000000000000000e+00  -2.9970999807119370e-02 -8.4103003144264221e-02 0.0000000000000000e+00  -3.2914999872446060e-02 -8.3628997206687927e-02 0.0000000000000000e+00  -2.9864000156521797e-02 -8.4218002855777740e-02 0.0000000000000000e+00  -2.0990999415516853e-02 -8.0945998430252075e-02 0.0000000000000000e+00  -1.8551999703049660e-02 -8.1070996820926666e-02 0.0000000000000000e+00  -1.9525000825524330e-02 -8.3299003541469574e-02 0.0000000000000000e+00  -2.0059999078512192e-02 -8.4620997309684753e-02 0.0000000000000000e+00  -1.8177000805735588e-02 -8.5187003016471863e-02 0.0000000000000000e+00  -2.0106000825762749e-02 -6.2765002250671387e-02 0.0000000000000000e+00  -2.0289000123739243e-02 -6.7051000893115997e-02 0.0000000000000000e+00  -1.8385000526905060e-02 -6.2932997941970825e-02 0.0000000000000000e+00  -1.6458999365568161e-02 -5.8478001505136490e-02 0.0000000000000000e+00  -3.8149999454617500e-03 -4.6487998217344284e-02 0.0000000000000000e+00  -7.1410001255571842e-03 -4.0931999683380127e-02 0.0000000000000000e+00  -7.5139999389648438e-03 -4.1790001094341278e-02 0.0000000000000000e+00  -6.2310001812875271e-03 -7.5599999399855733e-04 0.0000000000000000e+00  -6.8000000901520252e-03 -7.5599999399855733e-04 0.0000000000000000e+00  -7.1519999764859676e-03 -5.7899998500943184e-04 0.0000000000000000e+00  -7.5309998355805874e-03 -3.9000000106170774e-04 0.0000000000000000e+00  5.1259999163448811e-03 4.3959999457001686e-03 0.0000000000000000e+00  1.7170000821352005e-02 1.3949999585747719e-02 0.0000000000000000e+00  2.2233000025153160e-02 1.7191000282764435e-02 0.0000000000000000e+00  1.1785999871790409e-02 1.0060000233352184e-02 0.0000000000000000e+00  -5.0719999708235264e-03 -7.5599999399855733e-04 0.0000000000000000e+00  -3.7999998312443495e-05 -1.2720000231638551e-03 0.0000000000000000e+00  3.3040000125765800e-03 2.9760000761598349e-03 0.0000000000000000e+00  -7.5599999399855733e-04 -1.5109999803826213e-03 0.0000000000000000e+00  6.9800001801922917e-04 -1.0270000202581286e-03 0.0000000000000000e+00  1.9734999164938927e-02 1.5469999983906746e-02 0.0000000000000000e+00  2.4421000853180885e-02 1.7482999712228775e-02 0.0000000000000000e+00  3.2255999743938446e-02 2.1639000624418259e-02 0.0000000000000000e+00  2.9590999707579613e-02 2.0860999822616577e-02 0.0000000000000000e+00  5.9622999280691147e-02 3.9491001516580582e-02 0.0000000000000000e+00  5.5792000144720078e-02 4.1331000626087189e-02 0.0000000000000000e+00  5.0342999398708344e-02 3.6354999989271164e-02 0.0000000000000000e+00  2.0119000226259232e-02 1.1099000461399555e-02 0.0000000000000000e+00  3.4412000328302383e-02 1.7295999452471733e-02 0.0000000000000000e+00  4.2314000427722931e-02 2.1166000515222549e-02 0.0000000000000000e+00  4.3825000524520874e-02 2.2174000740051270e-02 0.0000000000000000e+00  3.2751999795436859e-02 1.6217000782489777e-02 0.0000000000000000e+00  2.6032000780105591e-02 1.3036999851465225e-02 0.0000000000000000e+00  4.9908999353647232e-02 2.5519000366330147e-02 0.0000000000000000e+00  5.7463999837636948e-02 3.0513999983668327e-02 0.0000000000000000e+00  6.1138998717069626e-02 3.1697999686002731e-02 0.0000000000000000e+00  1.3095800578594208e-01 1.9556799530982971e-01 0.0000000000000000e+00  1.2476500123739243e-01 1.8059299886226654e-01 0.0000000000000000e+00  1.3338899612426758e-01 2.0100599527359009e-01 0.0000000000000000e+00  1.4970600605010986e-01 2.3841199278831482e-01 0.0000000000000000e+00  1.4902999997138977e-01 2.3667199909687042e-01 0.0000000000000000e+00  1.5572699904441833e-01 2.4966700375080109e-01 0.0000000000000000e+00  1.6335999965667725e-01 2.6690399646759033e-01 0.0000000000000000e+00  1.6879199445247650e-01 2.7232500910758972e-01 0.0000000000000000e+00  1.6069300472736359e-01 2.6589700579643250e-01 0.0000000000000000e+00  -2.7953999117016792e-02 6.0439999215304852e-03 0.0000000000000000e+00  1.5147599577903748e-01 2.6686701178550720e-01 0.0000000000000000e+00  1.4949199557304382e-01 2.7167201042175293e-01 0.0000000000000000e+00  1.5421700477600098e-01 2.7087500691413879e-01 0.0000000000000000e+00  1.5581899881362915e-01 2.6614400744438171e-01 0.0000000000000000e+00  1.5274700522422791e-01 2.6359599828720093e-01 0.0000000000000000e+00  1.5199799835681915e-01 2.5725701451301575e-01 0.0000000000000000e+00  1.6389900445938110e-01 2.6935899257659912e-01 0.0000000000000000e+00  1.6031700372695923e-01 2.5972899794578552e-01 0.0000000000000000e+00  1.6554099321365356e-01 2.6982098817825317e-01 0.0000000000000000e+00  1.6167099773883820e-01 2.6055899262428284e-01 0.0000000000000000e+00  1.5168400108814240e-01 2.4486400187015533e-01 0.0000000000000000e+00  1.5391799807548523e-01 2.5546899437904358e-01 0.0000000000000000e+00  1.5774700045585632e-01 2.6440700888633728e-01 0.0000000000000000e+00  1.5834900736808777e-01 2.7065300941467285e-01 0.0000000000000000e+00  1.6000699996948242e-01 2.7598899602890015e-01 0.0000000000000000e+00  1.6126799583435059e-01 2.7227601408958435e-01 0.0000000000000000e+00  1.5550500154495239e-01 2.5500100851058960e-01 0.0000000000000000e+00  -3.6825999617576599e-02 6.6340997815132141e-02 0.0000000000000000e+00  -4.6732999384403229e-02 5.0087999552488327e-02 0.0000000000000000e+00  -3.7905998528003693e-02 6.0375001281499863e-02 0.0000000000000000e+00  -3.2140000257641077e-03 1.0597100108861923e-01 0.0000000000000000e+00  -1.1951999738812447e-02 9.9182002246379852e-02 0.0000000000000000e+00  -1.7627000808715820e-02 8.9028000831604004e-02 0.0000000000000000e+00  -2.5490999221801758e-02 8.3632998168468475e-02 0.0000000000000000e+00  -3.7388999015092850e-02 -5.7941000908613205e-02 0.0000000000000000e+00  -3.4340001642704010e-02 -5.1794998347759247e-02 0.0000000000000000e+00  -3.5142999142408371e-02 -5.3472999483346939e-02 0.0000000000000000e+00  -3.8922000676393509e-02 -5.9516999870538712e-02 0.0000000000000000e+00  -4.4732999056577682e-02 -7.2711996734142303e-02 0.0000000000000000e+00  -5.3955998271703720e-02 -8.9036002755165100e-02 0.0000000000000000e+00  -5.5966999381780624e-02 -8.9845001697540283e-02 0.0000000000000000e+00  -5.9351000934839249e-02 -9.3662999570369720e-02 0.0000000000000000e+00  -4.0098000317811