<?xml version="1.0"?>
<VTKFile type="UnstructuredGrid"  version="0.1"  >
<UnstructuredGrid>
<Piece  NumberOfPoints="6340" NumberOfCells="12376">
<Points>
<DataArray  type="Float64"  NumberOfComponents="3"  format="ascii">-0.01935400068759918 0.02067000046372414 0  -0.02002800069749355 0.02132299914956093 0  -0.02025000005960464 0.02033999934792519 0  -0.0208090003579855 0.02108100056648254 0  -0.01958600059151649 0.01975099928677082 0  -0.01919299922883511 0.02154500037431717 0  -0.01968600042164326 0.02227899990975857 0  -0.01922200061380863 0.02309400029480457 0  -0.02015900053083897 0.02302299998700619 0  -0.01873799972236156 0.02227099984884262 0  -0.00874600000679493 0.01758100092411041 0  -0.009366000071167946 0.01849599927663803 0  -0.009697999805212021 0.01755700074136257 0  -0.01032400038093328 0.01851199939846992 0  -0.02579000033438206 0.07611499726772308 0  -0.02674500085413456 0.07657299935817719 0  -0.02688200026750565 0.07578399777412415 0  -0.02630800008773804 0.06944199651479721 0  -0.02691200003027916 0.07020299881696701 0  -0.02713000029325485 0.06928899884223938 0  -0.02785000018775463 0.06976000219583511 0  -0.01325799990445375 0.08774799853563309 0  -0.01420100033283234 0.08762700110673904 0  -0.01361100003123283 0.08688999712467194 0  -0.02026900090277195 0.08196700364351273 0  -0.01929499953985214 0.08209499716758728 0  -0.01986999996006489 0.08284000307321548 0  -0.01969899982213974 0.08121799677610397 0  -0.02188199944794178 0.02447200007736683 0  -0.02099299989640713 0.02458200044929981 0  -0.02139000035822392 0.02535500004887581 0  -0.02174399979412556 0.02613599970936775 0  -0.02229500003159046 0.02525600045919418 0  -0.02049300074577332 0.02546999976038933 0  -0.02009299956262112 0.02466199919581413 0  -0.0191820003092289 0.02473100088536739 0  -0.01959500089287758 0.0255379993468523 0  -0.02147999964654446 0.02367899939417839 0  -0.02245200052857399 0.0236200001090765 0  -0.02184000052511692 0.02245000004768372 0  -0.02133899927139282 0.02178500033915043 0  -0.02106500044465065 0.0228630006313324 0  -0.02054399996995926 0.02209999971091747 0  -0.0161530002951622 0.02196200005710125 0  -0.01665399968624115 0.02108299918472767 0  -0.01570400036871433 0.0210609994828701 0  -0.01703299954533577 0.02207900024950504 0  -0.01792900077998638 0.02208299934864044 0  -0.01744900085031986 0.0229640007019043 0  0.0431240014731884 0.08168099820613861 0  0.04275700077414513 0.08079800009727478 0  0.04409100115299225 0.08104799687862396 0  0.04596599936485291 0.09295299649238586 0  0.04677699878811836 0.09330599755048752 0  0.04566700011491776 0.0937889963388443 0  0.02779199928045273 0.1015700027346611 0  0.02794899977743626 0.1006959974765778 0  0.02888499945402145 0.1010940000414848 0  0.02678800001740456 0.1020070016384125 0  0.02693199925124645 0.1009479984641075 0  -0.006568999961018562 0.09683900326490402 0  -0.005576999858021736 0.09695299714803696 0  -0.006169000174850225 0.09769999980926514 0  -0.005173000041395426 0.09781400114297867 0  -0.01882700063288212 0.09668199717998505 0  -0.0192280001938343 0.09593100100755692 0  -0.01811099983751774 0.09616299718618393 0  -0.01982500031590462 0.09676399827003479 0  -0.01463000010699034 0.1031870022416115 0  -0.01484199985861778 0.1040500029921532 0  -0.01549800019711256 0.1032489985227585 0  -0.01086299959570169 0.09548299759626389 0  -0.009890000335872173 0.09561300277709961 0  -0.01048200018703938 0.0963589996099472 0  -0.01183499954640865 0.09534499794244766 0  -0.01124299969524145 0.09460099786520004 0  -0.01221400033682585 0.09446299821138382 0  -0.01458199974149466 0.09739399701356888 0  -0.01513199973851442 0.09811100363731384 0  -0.01558999996632338 0.09723900258541107 0  -0.01340499985963106 0.09594500064849854 0  -0.01439199969172478 0.09580899775028229 0  -0.01378600019961596 0.09507299959659576 0  0.01252999994903803 0.09325599670410156 0  0.01359799969941378 0.09322299808263779 0  0.01299799978733063 0.09402800351381302 0  0.007915999740362167 0.07844699919223785 0  0.008414999581873417 0.0775889977812767 0  0.008983000181615353 0.07841300219297409 0  -0.008489999920129776 0.01665999926626682 0  -0.007703000213950872 0.01681900024414062 0  -0.009314999915659428 0.01659899950027466 0  -0.01017600018531084 0.01653599925339222 0  -0.01362999994307756 0.01669000089168549 0  -0.01383799966424704 0.0178030002862215 0  -0.01443300023674965 0.01692299917340279 0  -0.01307199988514185 0.01757499948143959 0  -0.01307199988514185 0.01862600073218346 0  -0.01229200046509504 0.01770799979567528 0  -0.01255900040268898 0.02158199995756149 0  -0.01303699985146523 0.02063200064003468 0  -0.01215299963951111 0.02062899991869926 0  -0.01173400040715933 0.01972699910402298 0  -0.01119299978017807 0.02055500075221062 0  -0.01263399980962276 0.01963900029659271 0  -0.0134469997137785 0.02163900062441826 0  -0.01480900030583143 0.02091499976813793 0  -0.01523299980908632 0.0218959990888834 0  -0.01433799974620342 0.02176599949598312 0  -0.009816000238060951 0.01944500021636486 0  -0.01128000020980835 0.03067599982023239 0  -0.01177799981087446 0.02981499955058098 0  -0.01084799971431494 0.02971700020134449 0  -0.006147000007331371 0.02910099923610687 0  -0.006591999903321266 0.03009100072085857 0  -0.007089999970048666 0.02924199961125851 0  -0.008899999782443047 0.01944299973547459 0  -0.006541000213474035 0.01868800073862076 0  -0.007482999935746193 0.01860000006854534 0  -0.006756000220775604 0.01783699914813042 0  -0.006852000020444393 0.01699000038206577 0  -0.005909999832510948 0.01717999950051308 0  0.0479470007121563 0.08914300054311752 0  0.04878700152039528 0.08863800019025803 0  0.04859999939799309 0.08979900181293488 0  0.04751800000667572 0.08994500339031219 0  0.01587600074708462 0.05837099999189377 0  0.01692000031471252 0.05823099985718727 0  0.01647000014781952 0.0591449998319149 0  0.02917099930346012 0.04279699921607971 0  0.02961299940943718 0.04172499850392342 0  0.03012000024318695 0.04243599995970726 0  0.03152300044894218 0.04697100073099136 0  0.03243000060319901 0.04626699909567833 0  0.03281600028276443 0.04702600091695786 0  0.03141500055789948 0.05052600055932999 0  0.03044700063765049 0.05060699954628944 0  0.03095299936830997 0.04964099824428558 0  0.03046599961817265 0.04880800098180771 0  0.03150200098752975 0.0486770011484623 0  0.02994499914348125 0.04975999891757965 0  0.02944800071418285 0.05071499943733215 0  0.02941299974918365 0.04895300045609474 0  0.02882299944758415 0.04818300157785416 0  0.02835600078105927 0.04909100010991096 0  0.02775299921631813 0.04831900075078011 0  0.04530699923634529 0.09144400060176849 0  0.04419900104403496 0.09148100018501282 0  0.04481200128793716 0.09068900346755981 0  0.04372800141572952 0.09069500118494034 0  0.006870999932289124 0.02312400005757809 0  0.007625999860465527 0.02359200082719326 0  0.006901000160723925 0.02422199957072735 0  0.007720000110566616 0.02457999996840954 0  0.02729599922895432 0.04922699928283691 0  0.0232280008494854 0.05143800005316734 0  0.02277499996125698 0.05235100165009499 0  0.02217499911785126 0.05156800150871277 0  0.02382400073111057 0.05222399905323982 0  0.02997699938714504 0.05156899988651276 0  0.01798900030553341 0.03451399877667427 0  0.01709800027310848 0.03436800092458725 0  0.01749599911272526 0.03345600143074989 0  0.01260400004684925 0.03984799981117249 0  0.01166199985891581 0.03983800113201141 0  0.0121069997549057 0.03892999887466431 0  0.01116400025784969 0.03892099857330322 0  0.0107190003618598 0.03982700034976006 0  0.01066800020635128 0.03800199925899506 0  0.01161000039428473 0.0380139984190464 0  0.01215900015085936 0.04075599834322929 0  -0.02771800011396408 0.07063999772071838 0  -0.02662000060081482 0.07104700058698654 0  -0.02759700082242489 0.07144500315189362 0  -0.02595200017094612 0.07035999745130539 0  -0.02555800043046474 0.071212999522686 0  -0.02452900074422359 0.07138100266456604 0  -0.02499799989163876 0.07211700081825256 0  -0.02396300062537193 0.07066100090742111 0  -0.02352100051939487 0.0715320035815239 0  -0.0240279994904995 0.07226599752902985 0  -0.02795499935746193 0.0688449963927269 0  -0.0194690003991127 0.08370800316333771 0  -0.02044199965894222 0.08358199894428253 0  -0.01924999989569187 0.092678003013134 0  -0.02020400017499924 0.09259600192308426 0  -0.0196129996329546 0.09184499830007553 0  -0.02056300081312656 0.09176699817180634 0  -0.01997100003063679 0.09100999683141708 0  -0.01827899925410748 0.09534700214862823 0  -0.01735099963843822 0.09545599669218063 0  -0.01706800051033497 0.09629199653863907 0  -0.01455199997872114 0.08676899969577789 0  -0.01175300031900406 0.08062600344419479 0  -0.0107829999178648 0.08075500279664993 0  -0.01136100012809038 0.08149900287389755 0  -0.01099400036036968 0.08236599713563919 0  -0.01040599960833788 0.08162499964237213 0  -0.01553099974989891 0.07845299690961838 0  -0.0159670002758503 0.07756000012159348 0  -0.01498600002378225 0.07769499719142914 0  -0.01400499977171421 0.0778300017118454 0  -0.01443899981677532 0.07694000005722046 0  -0.01872199960052967 0.08134900033473969 0  -0.01816499978303909 0.08059299737215042 0  -0.0191469993442297 0.08045999705791473 0  -0.02012999914586544 0.08032900094985962 0  -0.02457199990749359 0.07300300151109695 0  -0.02514299936592579 0.07538799941539764 0  -0.02475900016725063 0.07625699788331985 0  -0.02277600020170212 0.02424000017344952 0  -0.02308999933302402 0.02483999915421009 0  -0.02331800013780594 0.02544399909675121 0  -0.02356399968266487 0.02609300054609776 0  -0.02261899970471859 0.02607499994337559 0  -0.01967000029981136 0.02387199923396111 0  -0.01875099912285805 0.02393100038170815 0  -0.02059300057590008 0.0237830001860857 0  -0.0221369992941618 0.02301800064742565 0  -0.01761100068688393 0.01824099943041801 0  -0.01723800040781498 0.01900400035083294 0  -0.01831999979913235 0.01862999983131886 0  -0.01688399910926819 0.01784100010991096 0  -0.01830100081861019 0.02307300083339214 0  -0.01655
[...]
<PointData  Vectors="velocity"> 
<DataArray  type="Float64"  Name="velocity"  NumberOfComponents="3" format="ascii">3.4479999449104071e-03 2.1009999327361584e-03 0.0000000000000000e+00  2.9529999010264874e-03 1.7849999712780118e-03 0.0000000000000000e+00  7.5599999399855733e-04 0.0000000000000000e+00 0.0000000000000000e+00  1.8169999821111560e-03 -5.3100002696737647e-04 0.0000000000000000e+00  2.3499999952036887e-04 0.0000000000000000e+00 0.0000000000000000e+00  6.3700000755488873e-03 4.1249999776482582e-03 0.0000000000000000e+00  6.1690001748502254e-03 3.9780000224709511e-03 0.0000000000000000e+00  9.2940004542469978e-03 5.7560000568628311e-03 0.0000000000000000e+00  5.7839998044073582e-03 3.6820000968873501e-03 0.0000000000000000e+00  9.8980003967881203e-03 6.2319999560713768e-03 0.0000000000000000e+00  3.5999999381601810e-03 -2.1699999924749136e-03 0.0000000000000000e+00  7.1290000341832638e-03 9.6000003395602107e-05 0.0000000000000000e+00  5.7749999687075615e-03 -1.3139999937266111e-03 0.0000000000000000e+00  1.0896000079810619e-02 1.8039999995380640e-03 0.0000000000000000e+00  -1.8394999206066132e-02 -5.3679998964071274e-02 0.0000000000000000e+00  1.4088000170886517e-02 -3.5509001463651657e-02 0.0000000000000000e+00  1.3852999545633793e-02 -3.5509001463651657e-02 0.0000000000000000e+00  -1.5500999987125397e-02 -7.7770002186298370e-02 0.0000000000000000e+00  -1.4449000358581543e-02 -6.6910997033119202e-02 0.0000000000000000e+00  -1.2768999673426151e-02 -6.7189998924732208e-02 0.0000000000000000e+00  1.6620999202132225e-02 -3.3241998404264450e-02 0.0000000000000000e+00  -9.0934999287128448e-02 -7.7944003045558929e-02 0.0000000000000000e+00  -8.0403998494148254e-02 -6.3955001533031464e-02 0.0000000000000000e+00  -9.6676997840404510e-02 -8.3232998847961426e-02 0.0000000000000000e+00  -5.3047999739646912e-02 -5.9833001345396042e-02 0.0000000000000000e+00  -6.3948996365070343e-02 -6.8967998027801514e-02 0.0000000000000000e+00  -5.3112000226974487e-02 -5.3405001759529114e-02 0.0000000000000000e+00  -6.2297999858856201e-02 -7.5354002416133881e-02 0.0000000000000000e+00  2.5879999157041311e-03 1.5010000206530094e-03 0.0000000000000000e+00  4.6999999321997166e-03 2.7920000720769167e-03 0.0000000000000000e+00  3.6200000904500484e-03 1.9320000428706408e-03 0.0000000000000000e+00  2.2209999151527882e-03 8.1599998520687222e-04 0.0000000000000000e+00  1.4900000533089042e-03 5.7400000514462590e-04 0.0000000000000000e+00  6.0209999792277813e-03 3.2589999027550220e-03 0.0000000000000000e+00  7.3259999044239521e-03 4.2519997805356979e-03 0.0000000000000000e+00  1.0556999593973160e-02 5.9199999086558819e-03 0.0000000000000000e+00  8.8309999555349350e-03 4.6749999746680260e-03 0.0000000000000000e+00  2.9219998978078365e-03 1.7920000245794654e-03 0.0000000000000000e+00  5.2570002153515816e-03 -1.8810000037774444e-03 0.0000000000000000e+00  3.7779998965561390e-03 -1.5109999803826213e-03 0.0000000000000000e+00  2.8250000905245543e-03 -1.0349999647587538e-03 0.0000000000000000e+00  2.9349999967962503e-03 1.8179999897256494e-03 0.0000000000000000e+00  3.0660000629723072e-03 1.8970000091940165e-03 0.0000000000000000e+00  2.0899999886751175e-02 1.1620000004768372e-02 0.0000000000000000e+00  1.5526999719440937e-02 9.0399999171495438e-03 0.0000000000000000e+00  1.9017999991774559e-02 1.0333999991416931e-02 0.0000000000000000e+00  1.7211999744176865e-02 1.0033000260591507e-02 0.0000000000000000e+00  1.3058999553322792e-02 7.9870000481605530e-03 0.0000000000000000e+00  1.7196999862790108e-02 9.9200000986456871e-03 0.0000000000000000e+00  4.5017000287771225e-02 8.6676001548767090e-02 0.0000000000000000e+00  4.4665001332759857e-02 8.9262999594211578e-02 0.0000000000000000e+00  -1.8408000469207764e-02 -3.1658999621868134e-02 0.0000000000000000e+00  5.1474999636411667e-02 7.4262998998165131e-02 0.0000000000000000e+00  4.8457000404596329e-02 6.8425998091697693e-02 0.0000000000000000e+00  5.0739001482725143e-02 7.5116999447345734e-02 0.0000000000000000e+00  -3.0705999583005905e-02 2.6249999180436134e-02 0.0000000000000000e+00  -3.1008999794721603e-02 4.0242001414299011e-02 0.0000000000000000e+00  -2.3794999346137047e-02 3.8883998990058899e-02 0.0000000000000000e+00  -3.6504000425338745e-02 1.4306999742984772e-02 0.0000000000000000e+00  -3.8173999637365341e-02 3.1114000827074051e-02 0.0000000000000000e+00  -9.1778002679347992e-02 -7.5087003409862518e-02 0.0000000000000000e+00  -1.0372100025415421e-01 -8.9741997420787811e-02 0.0000000000000000e+00  -8.3164997398853302e-02 -6.9684997200965881e-02 0.0000000000000000e+00  -9.4435997307300568e-02 -8.4273003041744232e-02 0.0000000000000000e+00  1.3345000334084034e-02 3.3957000821828842e-02 0.0000000000000000e+00  9.7639998421072960e-03 3.1046999618411064e-02 0.0000000000000000e+00  7.4579999782145023e-03 3.4566000103950500e-02 0.0000000000000000e+00  7.5369998812675476e-03 -4.2817998677492142e-02 0.0000000000000000e+00  2.6528000831604004e-02 4.0667001157999039e-02 0.0000000000000000e+00  3.2569998875260353e-03 -4.6606998890638351e-02 0.0000000000000000e+00  3.5260000731796026e-03 -4.6337001025676727e-02 0.0000000000000000e+00  -4.8950999975204468e-02 -2.0592000335454941e-02 0.0000000000000000e+00  -5.9647999703884125e-02 -3.5213999450206757e-02 0.0000000000000000e+00  -4.7561999410390854e-02 -1.6837999224662781e-02 0.0000000000000000e+00  -3.9680000394582748e-02 -9.0859998017549515e-03 0.0000000000000000e+00  -5.1931001245975494e-02 -2.5909999385476112e-02 0.0000000000000000e+00  -4.2243000119924545e-02 -1.3300999999046326e-02 0.0000000000000000e+00  -7.6500000432133675e-04 3.3376999199390411e-02 0.0000000000000000e+00  4.5639998279511929e-03 3.8573000580072403e-02 0.0000000000000000e+00  4.1339998133480549e-03 3.7732999771833420e-02 0.0000000000000000e+00  -2.2078000009059906e-02 1.5437999740242958e-02 0.0000000000000000e+00  -1.5573999844491482e-02 2.1889999508857727e-02 0.0000000000000000e+00  -2.2894000634551048e-02 1.1312999762594700e-02 0.0000000000000000e+00  -1.9694599509239197e-01 -2.1400000900030136e-02 0.0000000000000000e+00  -1.8942800164222717e-01 -1.9930000416934490e-03 0.0000000000000000e+00  -1.9418799877166748e-01 -1.8316000699996948e-02 0.0000000000000000e+00  -5.4786998778581619e-02 -4.7446999698877335e-02 0.0000000000000000e+00  -3.6635000258684158e-02 -2.7273999527096748e-02 0.0000000000000000e+00  -4.5201998203992844e-02 -2.0963000133633614e-02 0.0000000000000000e+00  -3.0219999607652426e-03 -3.0219999607652426e-03 0.0000000000000000e+00  -3.0219999607652426e-03 -3.2530000898987055e-03 0.0000000000000000e+00  -3.0219999607652426e-03 -2.7799999807029963e-03 0.0000000000000000e+00  -3.0219999607652426e-03 -2.5279999244958162e-03 0.0000000000000000e+00  -2.2670000325888395e-03 -7.5599999399855733e-04 0.0000000000000000e+00  5.9420000761747360e-03 9.9500000942498446e-04 0.0000000000000000e+00  -2.0190000068396330e-03 -5.0800002645701170e-04 0.0000000000000000e+00  6.2319999560713768e-03 6.2700000125914812e-04 0.0000000000000000e+00  1.1141000315546989e-02 3.3179998863488436e-03 0.0000000000000000e+00  7.7960002236068249e-03 9.1499998234212399e-04 0.0000000000000000e+00  2.9183000326156616e-02 1.3985999859869480e-02 0.0000000000000000e+00  2.3050999268889427e-02 1.0243999771773815e-02 0.0000000000000000e+00  2.3923000320792198e-02 1.0320000350475311e-02 0.0000000000000000e+00  1.8756000325083733e-02 6.9010001607239246e-03 0.0000000000000000e+00  2.3773999884724617e-02 1.0251999832689762e-02 0.0000000000000000e+00  1.7552999779582024e-02 6.6610001958906651e-03 0.0000000000000000e+00  2.7995999902486801e-02 1.3550000265240669e-02 0.0000000000000000e+00  2.0523000508546829e-02 1.0281999595463276e-02 0.0000000000000000e+00  2.4575000628829002e-02 1.3000999577343464e-02 0.0000000000000000e+00  2.7002999559044838e-02 1.3643000274896622e-02 0.0000000000000000e+00  1.6349000856280327e-02 5.5559999309480190e-03 0.0000000000000000e+00  4.1267998516559601e-02 2.5585999712347984e-02 0.0000000000000000e+00  3.8134001195430756e-02 2.6623999699950218e-02 0.0000000000000000e+00  4.4569998979568481e-02 3.0850000679492950e-02 0.0000000000000000e+00  6.9320000708103180e-02 4.0380001068115234e-02 0.0000000000000000e+00  7.1287997066974640e-02 4.0389999747276306e-02 0.0000000000000000e+00  6.6115997731685638e-02 4.0520999580621719e-02 0.0000000000000000e+00  1.3527999632060528e-02 4.5469999313354492e-03 0.0000000000000000e+00  -6.9229998625814915e-03 -4.1990000754594803e-03 0.0000000000000000e+00  -2.6759998872876167e-03 -3.0720001086592674e-03 0.0000000000000000e+00  -2.6479999069124460e-03 -3.7909999955445528e-03 0.0000000000000000e+00  -3.0219999607652426e-03 -3.5019998904317617e-03 0.0000000000000000e+00  -3.0219999607652426e-03 -3.7779998965561390e-03 0.0000000000000000e+00  4.3145999312400818e-02 5.6735999882221222e-02 0.0000000000000000e+00  3.9315998554229736e-02 4.9601998180150986e-02 0.0000000000000000e+00  4.1650999337434769e-02 5.3743001073598862e-02 0.0000000000000000e+00  4.5805998146533966e-02 6.1627998948097229e-02 0.0000000000000000e+00  1.3485600054264069e-01 1.4682899415493011e-01 0.0000000000000000e+00  1.3413600623607635e-01 1.5445500612258911e-01 0.0000000000000000e+00  1.3026499748229980e-01 1.5288999676704407e-01 0.0000000000000000e+00  3.0858000740408897e-02 3.5188999027013779e-02 0.0000000000000000e+00  -2.0121000707149506e-02 -1.1888000182807446e-02 0.0000000000000000e+00  -1.9875999540090561e-02 -1.2378999963402748e-02 0.0000000000000000e+00  3.2290998846292496e-02 5.5929001420736313e-02 0.0000000000000000e+00  -1.9642999395728111e-02 -1.5638999640941620e-02 0.0000000000000000e+00  -1.9642999395728111e-02 -1.6112999990582466e-02 0.0000000000000000e+00  5.0616998225450516e-02 9.3739002943038940e-02 0.0000000000000000e+00  6.0828998684883118e-02 1.0502099990844727e-01 0.0000000000000000e+00  5.1511000841856003e-02 8.9313998818397522e-02 0.0000000000000000e+00  5.2382998168468475e-02 8.5684001445770264e-02 0.0000000000000000e+00  4.1276000440120697e-02 7.3362998664379120e-02 0.0000000000000000e+00  6.2518000602722168e-02 1.0113500058650970e-01 0.0000000000000000e+00  7.1278996765613556e-02 1.1557599902153015e-01 0.0000000000000000e+00  6.4303003251552582e-02 9.7901001572608948e-02 0.0000000000000000e+00  6.7302003502845764e-02 9.5017999410629272e-02 0.0000000000000000e+00  7.6026000082492828e-02 1.0864999890327454e-01 0.0000000000000000e+00  7.9267002642154694e-02 1.0546900331974030e-01 0.0000000000000000e+00  5.4264999926090240e-02 8.0324999988079071e-02 0.0000000000000000e+00  5.7022999972105026e-02 8.9850999414920807e-02 0.0000000000000000e+00  5.5397000163793564e-02 8.4706999361515045e-02 0.0000000000000000e+00  5.8038000017404556e-02 9.4866000115871429e-02 0.0000000000000000e+00  -4.5329998247325420e-03 -1.1567000299692154e-02 0.0000000000000000e+00  -4.5329998247325420e-03 -1.1819000355899334e-02 0.0000000000000000e+00  -9.0150004252791405e-03 -5.3469999693334103e-03 0.0000000000000000e+00  -7.3310001753270626e-03 -4.1430001147091389e-03 0.0000000000000000e+00  8.7420001626014709e-02 1.1788800358772278e-01 0.0000000000000000e+00  1.2229199707508087e-01 1.4845600724220276e-01 0.0000000000000000e+00  1.2428700178861618e-01 1.5331199765205383e-01 0.0000000000000000e+00  1.2824699282646179e-01 1.4842599630355835e-01 0.0000000000000000e+00  1.1845999956130981e-01 1.5299999713897705e-01 0.0000000000000000e+00  6.8534001708030701e-02 1.1955299973487854e-01 0.0000000000000000e+00  4.7396998852491379e-02 2.8353000059723854e-02 0.0000000000000000e+00  5.2997998893260956e-02 3.0564000830054283e-02 0.0000000000000000e+00  3.8927998393774033e-02 2.2562999278306961e-02 0.0000000000000000e+00  1.4887000620365143e-01 7.7205002307891846e-02 0.0000000000000000e+00  1.5397900342941284e-01 7.5791999697685242e-02 0.0000000000000000e+00  1.4512799680233002e-01 7.1583002805709839e-02 0.0000000000000000e+00  1.5044599771499634e-01 7.0418998599052429e-02 0.0000000000000000e+00  1.5888799726963043e-01 7.4196003377437592e-02 0.0000000000000000e+00  1.4421899616718292e-01 6.5228998661041260e-02 0.0000000000000000e+00  1.3919900357723236e-01 6.6118001937866211e-02 0.0000000000000000e+00  1.5680700540542603e-01 8.0851003527641296e-02 0.0000000000000000e+00  1.6109999269247055e-02 -3.3753998577594757e-02 0.0000000000000000e+00  -1.5499000437557697e-02 -6.7520000040531158e-02 0.0000000000000000e+00  1.5642000362277031e-02 -3.4221000969409943e-02 0.0000000000000000e+00  -1.8240999430418015e-02 -7.9341001808643341e-02 0.0000000000000000e+00  -2.0177999511361122e-02 -8.0737002193927765e-02 0.0000000000000000e+00  -2.5502000004053116e-02 -9.4792999327182770e-02 0.0000000000000000e+00  -2.2639999166131020e-02 -8.4072999656200409e-02 0.0000000000000000e+00  -2.7297999709844589e-02 -1.0673300176858902e-01 0.0000000000000000e+00  -3.0920000746846199e-02 -1.0874000191688538e-01 0.0000000000000000e+00  -2.7606999501585960e-02 -9.6757002174854279e-02 0.0000000000000000e+00  1.7148999497294426e-02 -3.2715000212192535e-02 0.0000000000000000e+00  -5.1286000758409500e-02 -4.6284999698400497e-02 0.0000000000000000e+00  -4.1455999016761780e-02 -3.9080999791622162e-02 0.0000000000000000e+00  -1.8939999863505363e-03 2.2419000044465065e-02 0.0000000000000000e+00  6.3500000396743417e-04 2.0266000181436539e-02 0.0000000000000000e+00  -3.0739998910576105e-03 1.8866999074816704e-02 0.0000000000000000e+00  -6.0700002359226346e-04 1.7202999442815781e-02 0.0000000000000000e+00  -3.6889999173581600e-03 1.5390000306069851e-02 0.0000000000000000e+00  2.4419999681413174e-03 3.1357001513242722e-02 0.0000000000000000e+00  -4.0300001273863018e-04 3.2338999211788177e-02 0.0000000000000000e+00  3.5480000078678131e-03 3.5013999789953232e-02 0.0000000000000000e+00  -8.5896000266075134e-02 -7.0280000567436218e-02 0.0000000000000000e+00  -1.5422299504280090e-01 -1.8288899958133698e-01 0.0000000000000000e+00  -1.6219499707221985e-01 -1.9154599308967590e-01 0.0000000000000000e+00  -1.5740700066089630e-01 -1.7939299345016479e-01 0.0000000000000000e+00  -1.6142000257968903e-01 -1.7605400085449219e-01 0.0000000000000000e+00  -1.6462099552154541e-01 -1.8847499787807465e-01 0.0000000000000000e+00  -1.1058499664068222e-01 -1.6177000105381012e-01 0.0000000000000000e+00  -1.0224000364542007e-01 -1.6526700556278229e-01 0.0000000000000000e+00  -1.1157800257205963e-01 -1.7479899525642395e-01 0.0000000000000000e+00  -1.2056799978017807e-01 -1.8359899520874023e-01 0.0000000000000000e+00  -1.1227600276470184e-01 -1.8655499815940857e-01 0.0000000000000000e+00  -7.3645003139972687e-02 -8.5629999637603760e-02 0.0000000000000000e+00  -8.1877999007701874e-02 -1.0263899713754654e-01 0.0000000000000000e+00  -7.0233002305030823e-02 -9.1379001736640930e-02 0.0000000000000000e+00  -5.9025999158620834e-02 -8.0620996654033661e-02 0.0000000000000000e+00  -2.5840999558568001e-02 -8.5320003330707550e-02 0.0000000000000000e+00  -2.1476000547409058e-02 -6.4106002449989319e-02 0.0000000000000000e+00  -2.4058999493718147e-02 -6.3676998019218445e-02 0.0000000000000000e+00  6.0410001315176487e-03 -2.0769999828189611e-03 0.0000000000000000e+00  6.8000000901520252e-03 -2.2670000325888395e-03 0.0000000000000000e+00  7.5039998628199100e-03 -3.1469999812543392e-03 0.0000000000000000e+00  8.2620000466704369e-03 -4.0950002148747444e-03 0.0000000000000000e+00  1.0160000529140234e-03 1.8200000340584666e-04 0.0000000000000000e+00  8.3910003304481506e-03 5.0659999251365662e-03 0.0000000000000000e+00  1.2066000141203403e-02 7.0130000822246075e-03 0.0000000000000000e+00  5.3190002217888832e-03 3.3070000354200602e-03 0.0000000000000000e+00  4.4950000010430813e-03 -1.6909999540075660e-03 0.0000000000000000e+00  -9.9500000942498446e-04 0.0000000000000000e+00 0.0000000000000000e+00  4.0710000321269035e-03 1.9869999960064888e-03 0.0000000000000000e+00  -7.5599999399855733e-04 0.0000000000000000e+00 0.0000000000000000e+00  -1.2400000123307109e-03 0.0000000000000000e+00 0.0000000000000000e+00  1.3225000351667404e-02 7.8910002484917641e-03 0.0000000000000000e+00  2.1647000685334206e-02 1.1997999623417854e-02 0.0000000000000000e+00  2.5386000052094460e-02 1.3612000271677971e-02 0.0000000000000000e+00  2.0623000338673592e-02 1.1273000389337540e-02 0.0000000000000000e+00  3.4584999084472656e-02 2.1053999662399292e-02 0.0000000000000000e+00  3.7562001496553421e-02 1.8707999959588051e-02 0.0000000000000000e+00  3.0681999400258064e-02 1.3934999704360962e-02 0.0000000000000000e+00  2.9549000784754753e-02 1.4355000108480453e-02 0.0000000000000000e+00  3.8637001067399979e-02 2.3212999105453491e-02 0.0000000000000000e+00  4.3005999177694321e-02 2.7634000405669212e-02 0.0000000000000000e+00  4.3439000844955444e-02 2.7357000857591629e-02 0.0000000000000000e+00  3.7082999944686890e-02 2.2814000025391579e-02 0.0000000000000000e+00  3.3165998756885529e-02 1.8663000315427780e-02 0.0000000000000000e+00  4.6673998236656189e-02 3.1252998858690262e-02 0.0000000000000000e+00  5.0287000834941864e-02 3.4262999892234802e-02 0.0000000000000000e+00  4.9380000680685043e-02 3.4237999469041824e-02 0.0000000000000000e+00  4.2392000555992126e-02 5.5562000721693039e-02 0.0000000000000000e+00  3.8463998585939407e-02 4.9589999020099640e-02 0.0000000000000000e+00  4.1827000677585602e-02 5.5527999997138977e-02 0.0000000000000000e+00  5.4744999855756760e-02 8.8569998741149902e-02 0.0000000000000000e+00  5.4076001048088074e-02 8.3169996738433838e-02 0.0000000000000000e+00  5.6529998779296875e-02 9.4129003584384918e-02 0.0000000000000000e+00  5.2250001579523087e-02 1.5840299427509308e-01 0.0000000000000000e+00  5.0241000950336456e-02 1.7169700562953949e-01 0.0000000000000000e+00  5.1440998911857605e-02 1.6796399652957916e-01 0.0000000000000000e+00  -1.8888000398874283e-02 -3.0220000073313713e-02 0.0000000000000000e+00  5.2312999963760376e-02 8.6488999426364899e-02 0.0000000000000000e+00  5.1931999623775482e-02 9.1424003243446350e-02 0.0000000000000000e+00  5.5020000785589218e-02 9.3285001814365387e-02 0.0000000000000000e+00  5.5130001157522202e-02 8.8022999465465546e-02 0.0000000000000000e+00  5.2297998219728470e-02 8.2960002124309540e-02 0.0000000000000000e+00  5.2129998803138733e-02 7.9467996954917908e-02 0.0000000000000000e+00  5.9268999844789505e-02 1.0531400144100189e-01 0.0000000000000000e+00  5.8382999151945114e-02 1.0034400224685669e-01 0.0000000000000000e+00  5.9206999838352203e-02 1.1136099696159363e-01 0.0000000000000000e+00  5.8756001293659210e-02 1.0589399933815002e-01 0.0000000000000000e+00  5.3125999867916107e-02 7.6833002269268036e-02 0.0000000000000000e+00  5.4294999688863754e-02 8.1667996942996979e-02 0.0000000000000000e+00  5.6659001857042313e-02 8.9321002364158630e-02 0.0000000000000000e+00  5.7121999561786652e-02 9.6436001360416412e-02 0.0000000000000000e+00  5.7921998202800751e-02 1.0594999790191650e-01 0.0000000000000000e+00  5.8327000588178635e-02 1.0273399949073792e-01 0.0000000000000000e+00  5.5780999362468719e-02 8.4871001541614532e-02 0.0000000000000000e+00  -4.6707000583410263e-02 -1.1772000230848789e-02 0.0000000000000000e+00  -5.0331000238656998e-02 -2.4062000215053558e-02 0.0000000000000000e+00  -5.5872999131679535e-02 -1.1292999610304832e-02 0.0000000000000000e+00  -4.6463001519441605e-02 2.7553999796509743e-02 0.0000000000000000e+00  -4.2484000325202942e-02 1.7007000744342804e-02 0.0000000000000000e+00  -4.9387998878955841e-02 1.1909999884665012e-02 0.0000000000000000e+00  -4.1951000690460205e-02 1.1899999808520079e-03 0.0000000000000000e+00  -6.8442001938819885e-02 -4.4718999415636063e-02 0.0000000000000000e+00  -5.1247000694274902e-02 -2.5939999148249626e-02 0.0000000000000000e+00  -5.7845998555421829e-02 -3.0807999894022942e-02 0.0000000000000000e+00  -7.0652998983860016e-02 -4.9697000533342361e-02 0.0000000000000000e+00  -1.0654000192880630e-01 -9.5207996666431427e-02 0.0000000000000000e+00  -1.4103899896144867e-01 -1.3413900136947632e-01 0.0000000000000000e+00  -1.5160399675369263e-01 -1.3988099992275238e-01 0.0000000000000000e+00  -1.6308799386024475e-01 -1.4802899956703186e-01 0.0000000000000000e+00 