<?xml version="1.0"?>
<VTKFile type="UnstructuredGrid"  version="0.1"  >
<UnstructuredGrid>
<Piece  NumberOfPoints="6340" NumberOfCells="12376">
<Points>
<DataArray  type="Float64"  NumberOfComponents="3"  format="ascii">-0.01944399997591972 0.0207700002938509 0  -0.02020799927413464 0.02144500054419041 0  -0.02040999941527843 0.02044999971985817 0  -0.02106700092554092 0.02124799974262714 0  -0.01966300047934055 0.01985099911689758 0  -0.01930099911987782 0.02164600044488907 0  -0.01987200044095516 0.02240299992263317 0  -0.01939300075173378 0.02321000024676323 0  -0.02043499983847141 0.02319799922406673 0  -0.01883099973201752 0.02236800082027912 0  -0.008403000421822071 0.01821799948811531 0  -0.009031999856233597 0.01906399987637997 0  -0.009359999559819698 0.01812699995934963 0  -0.009995000436902046 0.01901100017130375 0  -0.02627000026404858 0.07928500324487686 0  -0.02723599970340729 0.07985299825668335 0  -0.02738199941813946 0.07906399667263031 0  -0.02690899930894375 0.07246699929237366 0  -0.02750900015234947 0.0733179971575737 0  -0.02774699963629246 0.07239799946546555 0  -0.02847000025212765 0.07295999675989151 0  -0.01308399997651577 0.08984699845314026 0  -0.01406900025904179 0.0898049995303154 0  -0.01351200044155121 0.08898299932479858 0  -0.02062400057911873 0.08459199965000153 0  -0.01962500065565109 0.08461999893188477 0  -0.02018900029361248 0.0854329988360405 0  -0.02006099931895733 0.08377800136804581 0  -0.0224360004067421 0.024855000898242 0  -0.02143899910151958 0.02486299909651279 0  -0.02192799933254719 0.02572599984705448 0  -0.02236999943852425 0.02659199945628643 0  -0.02294499985873699 0.02573099918663502 0  -0.02092299982905388 0.02573700062930584 0  -0.02043700031936169 0.02487600035965443 0  -0.01942499913275242 0.02488799951970577 0  -0.01992299966514111 0.02574300020933151 0  -0.02194000035524368 0.02397100068628788 0  -0.02303400076925755 0.02402699925005436 0  -0.0222800001502037 0.02271999977529049 0  -0.02169100008904934 0.02200499922037125 0  -0.02143600024282932 0.02309300005435944 0  -0.02081999927759171 0.02227599918842316 0  -0.01602599956095219 0.02206899970769882 0  -0.01653599925339222 0.02118599973618984 0  -0.01553000044077635 0.02119800075888634 0  -0.01696199923753738 0.02215499989688396 0  -0.01794099994003773 0.02216999977827072 0  -0.01744900085031986 0.02304800041019917 0  0.04401399940252304 0.08346199989318848 0  0.04366200044751167 0.08255500346422195 0  0.04502499848604202 0.08286699652671814 0  0.04680199921131134 0.095100998878479 0  0.04763200134038925 0.09549900144338608 0  0.04656299948692322 0.0959940031170845 0  0.02936100028455257 0.1039580032229424 0  0.02945500053465366 0.103022001683712 0  0.03041299991309643 0.103471003472805 0  0.02839400060474873 0.1044050008058548 0  0.02846300043165684 0.1032700017094612 0  -0.005456999875605106 0.09900499880313873 0  -0.004404000006616116 0.09905499964952469 0  -0.00496299983933568 0.09989599883556366 0  -0.003905999939888716 0.09994199872016907 0  -0.01821199990808964 0.09973599761724472 0  -0.0186769999563694 0.09897799789905548 0  -0.01750800013542175 0.09912800043821335 0  -0.01923700049519539 0.09990700334310532 0  -0.0133899999782443 0.1063480004668236 0  -0.01354300044476986 0.1072880029678345 0  -0.01429099962115288 0.1064720004796982 0  -0.01006400026381016 0.09784000366926193 0  -0.009038000367581844 0.09791100025177002 0  -0.009596999734640121 0.098751001060009 0  -0.01108499988913536 0.09776700288057327 0  -0.01052500028163195 0.09692899882793427 0  -0.01154599990695715 0.09685599803924561 0  -0.01378700044006109 0.1001560017466545 0  -0.01430500019341707 0.1009609997272491 0  -0.01484099961817265 0.1000690013170242 0  -0.01267299987375736 0.09852299839258194 0  -0.01370199955999851 0.09845499694347382 0  -0.01312700007110834 0.09762600064277649 0  0.01362199988216162 0.09467499703168869 0  0.01468100026249886 0.09466300159692764 0  0.01414200011640787 0.09551499783992767 0  0.00800199992954731 0.07864800095558167 0  0.008500000461935997 0.07777799665927887 0  0.009058999828994274 0.07863499969244003 0  -0.008139999583363533 0.01734000071883202 0  -0.007356000132858753 0.01755099929869175 0  -0.008968000300228596 0.01722200028598309 0  -0.009832000359892845 0.01709800027310848 0  -0.01331000030040741 0.01702000014483929 0  -0.01353999972343445 0.01809700019657612 0  -0.01413900032639503 0.01720299944281578 0  -0.01275500003248453 0.01791900023818016 0  -0.01276300009340048 0.01894400082528591 0  -0.01197000034153461 0.01809900067746639 0  -0.01227600034326315 0.02186300046741962 0  -0.01275500003248453 0.02090900018811226 0  -0.01185199990868568 0.02095700055360794 0  -0.01142300013452768 0.02010400034487247 0  -0.0108839999884367 0.02094700001180172 0  -0.01232900004833937 0.01995999924838543 0  -0.01319099962711334 0.02187100052833557 0  -0.01458100043237209 0.02108800038695335 0  -0.01505099982023239 0.02203699946403503 0  -0.01410899963229895 0.02194599993526936 0  -0.009491000324487686 0.01995600014925003 0  -0.0110860001295805 0.03082899935543537 0  -0.01158600021153688 0.02996000088751316 0  -0.01062900014221668 0.02991599962115288 0  -0.00587099976837635 0.029619000852108 0  -0.00632400019094348 0.03055099956691265 0  -0.006819000001996756 0.02968800067901611 0  -0.008570999838411808 0.02002000063657761 0  -0.006207999773323536 0.01945300027728081 0  -0.007145999930799007 0.01930099911987782 0  -0.006417000200599432 0.01860900036990643 0  -0.006508000195026398 0.01777799986302853 0  -0.005570000037550926 0.01803000085055828 0  0.04859799891710281 0.09111399948596954 0  0.04949799925088882 0.09065999835729599 0  0.04922999814152718 0.0917930006980896 0  0.04813199862837791 0.0919020026922226 0  0.01614999957382679 0.05902599915862083 0  0.01718599908053875 0.05893599987030029 0  0.01672199927270412 0.05982400104403496 0  0.0296459998935461 0.04417200013995171 0  0.03010500036180019 0.04312700033187866 0  0.03059500083327293 0.04385700076818466 0  0.03193800151348114 0.04838800057768822 0  0.03285700082778931 0.04772699996829033 0  0.03324000164866447 0.04848600178956985 0  0.03181000053882599 0.05187200009822845 0  0.03082700073719025 0.05192700028419495 0  0.0313429981470108 0.05099400132894516 0  0.03085999935865402 0.05015899986028671 0  0.03190299868583679 0.05006499961018562 0  0.03032799996435642 0.05107799917459488 0  0.02982000075280666 0.05199899896979332 0  0.02979899942874908 0.05026600137352943 0  0.0292150005698204 0.04948699846863747 0  0.02873600088059902 0.05036500096321106 0  0.02814299985766411 0.04958200082182884 0  0.04604100063443184 0.09346400201320648 0  0.04494399949908257 0.09347900003194809 0  0.04549700021743774 0.09264100342988968 0  0.0444209985435009 0.09262300282716751 0  0.007333000190556049 0.02455800026655197 0  0.008111000061035156 0.02502799965441227 0  0.007356000132858753 0.02562700025737286 0  0.008201999589800835 0.02599300071597099 0  0.02767400071024895 0.05046100169420242 0  0.02357999980449677 0.05248099938035011 0  0.02311299927532673 0.0533670000731945 0  0.02253100089728832 0.05256099998950958 0  0.02415999956429005 0.05328699946403503 0  0.03034999966621399 0.05285299941897392 0  0.01864499971270561 0.03562799841165543 0  0.01774200052022934 0.03548499941825867 0  0.01815499924123287 0.03459800034761429 0  0.01311700046062469 0.04083500057458878 0  0.01215299963951111 0.0408330000936985 0  0.01261700037866831 0.0399480015039444 0  0.01165200024843216 0.03994600102305412 0  0.01118800044059753 0.04083000123500824 0  0.01114900037646294 0.03905599936842918 0  0.01211600005626678 0.03906099870800972 0  0.01265399996191263 0.04172100126743317 0  -0.02831799909472466 0.07385700196027756 0  -0.02719499915838242 0.07416000217199326 0  -0.02817800082266331 0.0746769979596138 0  -0.02653099969029427 0.07337799668312073 0  -0.02611400000751019 0.0742190033197403 0  -0.02506699971854687 0.07428199797868729 0  -0.02552700042724609 0.07509399950504303 0  -0.02450699917972088 0.07347600162029266 0  -0.02404000051319599 0.07433000206947327 0  -0.02453899942338467 0.07514400035142899 0  -0.02859199978411198 0.07202800363302231 0  -0.01974800042808056 0.08626999706029892 0  -0.02074999921023846 0.08624199777841568 0  -0.01892800070345402 0.09555400162935257 0  -0.01992199942469597 0.095551997423172 0  -0.01936399936676025 0.09471199661493301 0  -0.02035300061106682 0.09471499919891357 0  -0.01979600079357624 0.09386900067329407 0  -0.01773799955844879 0.09828100353479385 0  -0.01677300035953522 0.09831800311803818 0  -0.01642600074410439 0.09918099641799927 0  -0.01449699979275465 0.08894400298595428 0  -0.01197099965065718 0.08234599977731705 0  -0.01097699999809265 0.08237499743700027 0  -0.01153900008648634 0.08319000154733658 0  -0.01112100016325712 0.08403699845075607 0  -0.01055399980396032 0.08321999758481979 0  -0.01583800092339516 0.08056300133466721 0  -0.0162809994071722 0.07971300184726715 0  -0.01528500020503998 0.07974500209093094 0  -0.01428900007158518 0.07977599650621414 0  -0.01473299972712994 0.07892400026321411 0  -0.01906399987637997 0.08380600064992905 0  -0.01850599981844425 0.08298899978399277 0  -0.01950299926102161 0.08296000212430954 0  -0.02050299942493439 0.08293300122022629 0  -0.02507700026035309 0.07596500217914581 0  -0.02562000043690205 0.07847599685192108 0  -0.02522099949419498 0.0793209969997406 0  -0.02343299984931946 0.02472000010311604 0  -0.02381999976933002 0.02538999915122986 0  -0.02411399967968464 0.02607499994337559 0  -0.02442999929189682 0.02681300044059753 0  -0.0233559999614954 0.02664100006222725 0  -0.01992899924516678 0.02403800003230572 0  -0.01890799961984158 0.02403800003230572 0  -0.02095299959182739 0.02400700002908707 0  -0.02264600060880184 0.02335399948060513 0  -0.0174809992313385 0.01835200004279613 0  -0.01710399985313416 0.01911699958145618 0  -0.01823999918997288 0.01871000044047832 0  -0.01670099981129169 0.017985999584198 0  -0.01838400028645992 0.02316799946129322 0  -0.0164790004
[...]
<PointData  Vectors="velocity"> 
<DataArray  type="Float64"  Name="velocity"  NumberOfComponents="3" format="ascii">2.5859999004751444e-03 -1.4080000109970570e-03 0.0000000000000000e+00  2.0190000068396330e-03 -1.3119999784976244e-03 0.0000000000000000e+00  2.2670000325888395e-03 -3.0219999607652426e-03 0.0000000000000000e+00  3.8590000476688147e-03 -4.0839998982846737e-03 0.0000000000000000e+00  9.6600002143532038e-04 -2.7620000764727592e-03 0.0000000000000000e+00  3.6049999762326479e-03 -1.9330000504851341e-03 0.0000000000000000e+00  3.1479999888688326e-03 -1.9549999851733446e-03 0.0000000000000000e+00  4.2019998654723167e-03 -2.8639999218285084e-03 0.0000000000000000e+00  2.6100000832229853e-03 -2.0220000296831131e-03 0.0000000000000000e+00  4.9279998056590557e-03 -2.7660001069307327e-03 0.0000000000000000e+00  5.8860001154243946e-03 -1.0703000240027905e-02 0.0000000000000000e+00  8.9360000565648079e-03 -9.4179995357990265e-03 0.0000000000000000e+00  1.3695999979972839e-02 -7.0230001583695412e-03 0.0000000000000000e+00  1.2249000370502472e-02 -7.8999996185302734e-03 0.0000000000000000e+00  -1.9587000831961632e-02 -4.5184999704360962e-02 0.0000000000000000e+00  2.6699999580159783e-04 -3.8042001426219940e-02 0.0000000000000000e+00  5.0199998077005148e-04 -3.8277000188827515e-02 0.0000000000000000e+00  -1.9362000748515129e-02 -7.4252001941204071e-02 0.0000000000000000e+00  -1.7400000244379044e-02 -6.2139999121427536e-02 0.0000000000000000e+00  -1.5642000362277031e-02 -6.2061998993158340e-02 0.0000000000000000e+00  3.0219999607652426e-03 -4.0042001754045486e-02 0.0000000000000000e+00  -1.3606399297714233e-01 -9.5794998109340668e-02 0.0000000000000000e+00  -1.1987099796533585e-01 -8.0098003149032593e-02 0.0000000000000000e+00  -1.3321399688720703e-01 -1.0318700224161148e-01 0.0000000000000000e+00  -5.3707998245954514e-02 -6.5383002161979675e-02 0.0000000000000000e+00  -6.4790003001689911e-02 -7.7468998730182648e-02 0.0000000000000000e+00  -5.6357000023126602e-02 -6.0825001448392868e-02 0.0000000000000000e+00  -6.3473001122474670e-02 -8.2332000136375427e-02 0.0000000000000000e+00  6.7400000989437103e-04 -1.6420000465586782e-03 0.0000000000000000e+00  1.3259999686852098e-03 -2.4280000943690538e-03 0.0000000000000000e+00  6.3299998873844743e-04 -2.6430001016706228e-03 0.0000000000000000e+00  -1.1300000187475234e-04 -2.9599999543279409e-03 0.0000000000000000e+00  2.4799999664537609e-04 -1.7620000289753079e-03 0.0000000000000000e+00  1.3569999719038606e-03 -3.6599999293684959e-03 0.0000000000000000e+00  2.4109999649226665e-03 -3.2870001159608364e-03 0.0000000000000000e+00  3.8399999029934406e-03 -4.2460002005100250e-03 0.0000000000000000e+00  2.5690000038594007e-03 -4.6509997919201851e-03 0.0000000000000000e+00  1.0760000441223383e-03 -1.4870000304654241e-03 0.0000000000000000e+00  8.2790004089474678e-03 -8.2639995962381363e-03 0.0000000000000000e+00  6.8000000901520252e-03 -6.0439999215304852e-03 0.0000000000000000e+00  5.3710001520812511e-03 -5.0920001231133938e-03 0.0000000000000000e+00  1.4140000566840172e-03 -1.3579999795183539e-03 0.0000000000000000e+00  1.7630000365898013e-03 -1.3360000448301435e-03 0.0000000000000000e+00  1.0325999930500984e-02 -4.9669998697936535e-03 0.0000000000000000e+00  8.7649999186396599e-03 -4.0670000016689301e-03 0.0000000000000000e+00  1.0638000443577766e-02 -4.9780001863837242e-03 0.0000000000000000e+00  8.5119996219873428e-03 -4.3159998022019863e-03 0.0000000000000000e+00  6.5359999425709248e-03 -3.4529999829828739e-03 0.0000000000000000e+00  7.7570001594722271e-03 -4.5409998856484890e-03 0.0000000000000000e+00  1.8753999844193459e-02 3.4956999123096466e-02 0.0000000000000000e+00  1.9344000145792961e-02 3.6185000091791153e-02 0.0000000000000000e+00  4.0170000866055489e-03 -2.4415999650955200e-02 0.0000000000000000e+00  1.9582999870181084e-02 2.8528999537229538e-02 0.0000000000000000e+00  1.8904000520706177e-02 2.7481999248266220e-02 0.0000000000000000e+00  1.9440999254584312e-02 2.8965000063180923e-02 0.0000000000000000e+00  -3.7344999611377716e-02 -1.8486000597476959e-02 0.0000000000000000e+00  -3.7586998194456100e-02 -1.1223999783396721e-02 0.0000000000000000e+00  -3.1171999871730804e-02 -8.9039998129010201e-03 0.0000000000000000e+00  -4.2794000357389450e-02 -2.7679000049829483e-02 0.0000000000000000e+00  -4.3598998337984085e-02 -1.9398000091314316e-02 0.0000000000000000e+00  -7.3504999279975891e-02 -7.3270000517368317e-02 0.0000000000000000e+00  -8.7991997599601746e-02 -9.0759001672267914e-02 0.0000000000000000e+00  -4.9734000116586685e-02 -6.8291001021862030e-02 0.0000000000000000e+00  -6.3391000032424927e-02 -8.4835000336170197e-02 0.0000000000000000e+00  4.4498000293970108e-02 6.2137000262737274e-02 0.0000000000000000e+00  4.2715001851320267e-02 6.0454998165369034e-02 0.0000000000000000e+00  4.1514001786708832e-02 6.2215000391006470e-02 0.0000000000000000e+00  -1.5290000010281801e-03 -3.2241001725196838e-02 0.0000000000000000e+00  3.9870001375675201e-02 4.4211000204086304e-02 0.0000000000000000e+00  -1.6251999884843826e-02 -3.3762998878955841e-02 0.0000000000000000e+00  -1.4099000021815300e-02 -3.3493999391794205e-02 0.0000000000000000e+00  -3.8539998233318329e-02 -8.5199996829032898e-03 0.0000000000000000e+00  -5.1013998687267303e-02 -2.4869000539183617e-02 0.0000000000000000e+00  -2.2381000220775604e-02 -3.9499998092651367e-03 0.0000000000000000e+00  -2.6424000039696693e-02 7.9720001667737961e-03 0.0000000000000000e+00  -5.5945001542568207e-02 -1.3919999822974205e-02 0.0000000000000000e+00  -4.2447999119758606e-02 1.3070000568404794e-03 0.0000000000000000e+00  3.8940999656915665e-02 5.7130001485347748e-02 0.0000000000000000e+00  4.7219999134540558e-02 6.0903001576662064e-02 0.0000000000000000e+00  4.1095998138189316e-02 6.0564000159502029e-02 0.0000000000000000e+00  6.5069999545812607e-03 3.6081999540328979e-02 0.0000000000000000e+00  1.4748999848961830e-02 4.6195000410079956e-02 0.0000000000000000e+00  -5.9639997780323029e-03 3.2703001052141190e-02 0.0000000000000000e+00  -2.7904099225997925e-01 -6.3758999109268188e-02 0.0000000000000000e+00  -2.6736900210380554e-01 -4.8721998929977417e-02 0.0000000000000000e+00  -2.6837000250816345e-01 -6.3235998153686523e-02 0.0000000000000000e+00  -7.4225999414920807e-02 -7.0340998470783234e-02 0.0000000000000000e+00  -6.0049001127481461e-02 -5.3931001573801041e-02 0.0000000000000000e+00  -6.8135000765323639e-02 -4.8112001270055771e-02 0.0000000000000000e+00  -7.5550000183284283e-03 -1.5110000036656857e-02 0.0000000000000000e+00  -7.5550000183284283e-03 -1.6031999140977859e-02 0.0000000000000000e+00  -7.3139998130500317e-03 -1.3902000151574612e-02 0.0000000000000000e+00  -7.0609999820590019e-03 -1.2641999870538712e-02 0.0000000000000000e+00  -6.0439999215304852e-03 -7.5550000183284283e-03 0.0000000000000000e+00  1.2126999907195568e-02 -3.6979999858886003e-03 0.0000000000000000e+00  -5.5490001104772091e-03 -6.5649999305605888e-03 0.0000000000000000e+00  1.4007000252604485e-02 -3.6770000588148832e-03 0.0000000000000000e+00  1.2981000356376171e-02 -5.8039999566972256e-03 0.0000000000000000e+00  1.5041000209748745e-02 -4.5300000347197056e-03 0.0000000000000000e+00  1.5169000253081322e-02 -6.2420000322163105e-03 0.0000000000000000e+00  1.3736999593675137e-02 -6.5790000371634960e-03 0.0000000000000000e+00  1.4228999614715576e-02 -6.7480001598596573e-03 0.0000000000000000e+00  1.3686000369489193e-02 -7.0299999788403511e-03 0.0000000000000000e+00  1.4333000406622887e-02 -6.8370001390576363e-03 0.0000000000000000e+00  1.3333000242710114e-02 -6.7710001021623611e-03 0.0000000000000000e+00  1.4365999959409237e-02 -6.1679999344050884e-03 0.0000000000000000e+00  1.1947999708354473e-02 -5.7219997979700565e-03 0.0000000000000000e+00  1.2056999839842319e-02 -5.5240001529455185e-03 0.0000000000000000e+00  1.3411999680101871e-02 -5.8889999054372311e-03 0.0000000000000000e+00  1.1552000418305397e-02 -8.1639997661113739e-03 0.0000000000000000e+00  3.6860000342130661e-02 -1.6565000638365746e-02 0.0000000000000000e+00  3.2173000276088715e-02 -1.4778000302612782e-02 0.0000000000000000e+00  3.6207001656293869e-02 -1.1289999820291996e-02 0.0000000000000000e+00  5.0921998918056488e-02 1.3119999784976244e-03 0.0000000000000000e+00  5.4763000458478928e-02 -6.2200002139434218e-04 0.0000000000000000e+00  4.8962000757455826e-02 -4.8000001697801054e-05 0.0000000000000000e+00  9.2860003933310509e-03 -8.9349998161196709e-03 0.0000000000000000e+00  -1.6016999259591103e-02 -1.7294000834226608e-02 0.0000000000000000e+00  -6.3370000571012497e-03 -1.4639000408351421e-02 0.0000000000000000e+00  -2.1028000861406326e-02 -1.9563000649213791e-02 0.0000000000000000e+00  -7.5550000183284283e-03 -1.7029000446200371e-02 0.0000000000000000e+00  -7.5550000183284283e-03 -1.8131999298930168e-02 0.0000000000000000e+00  1.6622999683022499e-02 2.4600999429821968e-02 0.0000000000000000e+00  1.5994999557733536e-02 2.2879000753164291e-02 0.0000000000000000e+00  1.6426000744104385e-02 2.4059999734163284e-02 0.0000000000000000e+00  1.7147000879049301e-02 2.5887999683618546e-02 0.0000000000000000e+00  1.0915800184011459e-01 1.1428199708461761e-01 0.0000000000000000e+00  1.0755400359630585e-01 1.2077999860048294e-01 0.0000000000000000e+00  1.0640099644660950e-01 1.1965800076723099e-01 0.0000000000000000e+00  2.7610000222921371e-02 3.5523001104593277e-02 0.0000000000000000e+00  -4.7329999506473541e-03 -2.0198000594973564e-02 0.0000000000000000e+00  -4.2429999448359013e-03 -2.0688999444246292e-02 0.0000000000000000e+00  3.0209999531507492e-02 5.0069000571966171e-02 0.0000000000000000e+00  -2.0020001102238894e-03 -2.1153999492526054e-02 0.0000000000000000e+00  -1.7650000518187881e-03 -2.1153999492526054e-02 0.0000000000000000e+00  4.0605001151561737e-02 8.1569999456405640e-02 0.0000000000000000e+00  4.8379000276327133e-02 9.0648002922534943e-02 0.0000000000000000e+00  4.1616000235080719e-02 7.8509002923965454e-02 0.0000000000000000e+00  4.3326001614332199e-02 7.5479999184608459e-02 0.0000000000000000e+00  3.3945001661777496e-02 6.6039003431797028e-02 0.0000000000000000e+00  4.9975998699665070e-02 8.7925001978874207e-02 0.0000000000000000e+00  5.6217998266220093e-02 9.8898001015186310e-02 0.0000000000000000e+00  5.4464999586343765e-02 8.3989001810550690e-02 0.0000000000000000e+00  5.7571999728679657e-02 8.1635996699333191e-02 0.0000000000000000e+00  6.3946999609470367e-02 9.2179998755455017e-02 0.0000000000000000e+00  6.6385000944137573e-02 9.0309001505374908e-02 0.0000000000000000e+00  1.8696999177336693e-02 3.0246999114751816e-02 0.0000000000000000e+00  1.9145000725984573e-02 3.2637000083923340e-02 0.0000000000000000e+00  1.8631000071763992e-02 3.1479999423027039e-02 0.0000000000000000e+00  1.8782999366521835e-02 3.4341000020503998e-02 0.0000000000000000e+00  -1.0289999656379223e-02 -2.3941999301314354e-02 0.0000000000000000e+00  -1.0795000009238720e-02 -2.3690000176429749e-02 0.0000000000000000e+00  -4.5369998551905155e-03 -3.9699999615550041e-03 0.0000000000000000e+00  -3.2659999560564756e-03 -3.5129999741911888e-03 0.0000000000000000e+00  7.2076000273227692e-02 9.9134996533393860e-02 0.0000000000000000e+00  9.5946997404098511e-02 1.1951100081205368e-01 0.0000000000000000e+00  9.7157999873161316e-02 1.2235700339078903e-01 0.0000000000000000e+00  9.9734000861644745e-02 1.1856099963188171e-01 0.0000000000000000e+00  9.2205002903938293e-02 1.2348099797964096e-01 0.0000000000000000e+00  5.3886000066995621e-02 1.0157799720764160e-01 0.0000000000000000e+00  4.2897000908851624e-02 2.1602999418973923e-02 0.0000000000000000e+00  4.7324001789093018e-02 2.3832000792026520e-02 0.0000000000000000e+00  3.5204000771045685e-02 1.6564000397920609e-02 0.0000000000000000e+00  1.2433800101280212e-01 5.6931998580694199e-02 0.0000000000000000e+00  1.2833200395107269e-01 5.5962998420000076e-02 0.0000000000000000e+00  1.2107700109481812e-01 5.3121000528335571e-02 0.0000000000000000e+00  1.2523899972438812e-01 5.2372001111507416e-02 0.0000000000000000e+00  1.3214799761772156e-01 5.4965000599622726e-02 0.0000000000000000e+00  1.2098799645900726e-01 4.8716001212596893e-02 0.0000000000000000e+00  1.1688400059938431e-01 4.9185998737812042e-02 0.0000000000000000e+00  1.3086999952793121e-01 5.9487998485565186e-02 0.0000000000000000e+00  2.7660001069307327e-03 -3.9785999804735184e-02 0.0000000000000000e+00  -1.9641999155282974e-02 -6.2918998301029205e-02 0.0000000000000000e+00  2.5319999549537897e-03 -3.9551999419927597e-02 0.0000000000000000e+00  -2.0943999290466309e-02 -7.5396001338958740e-02 0.0000000000000000e+00  -2.4460000917315483e-02 -7.7986001968383789e-02 0.0000000000000000e+00  -2.9898000881075859e-02 -9.3855999410152435e-02 0.0000000000000000e+00  -2.9058000072836876e-02 -8.2295000553131104e-02 0.0000000000000000e+00  -3.1677000224590302e-02 -1.0753399878740311e-01 0.0000000000000000e+00  -3.5750001668930054e-02 -1.1043599992990494e-01 0.0000000000000000e+00  -3.4830000251531601e-02 -9.7382999956607819e-02 0.0000000000000000e+00  3.5500000230967999e-03 -4.0305998176336288e-02 0.0000000000000000e+00  -5.8952998369932175e-02 -5.6122001260519028e-02 0.0000000000000000e+00  -4.7492999583482742e-02 -4.5531000941991806e-02 0.0000000000000000e+00  1.3202999718487263e-02 4.3846998363733292e-02 0.0000000000000000e+00  2.1692000329494476e-02 4.4920999556779861e-02 0.0000000000000000e+00  4.7349999658763409e-03 3.7234999239444733e-02 0.0000000000000000e+00  1.1415000073611736e-02 3.7510000169277191e-02 0.0000000000000000e+00  1.7140000127255917e-03 3.1186999753117561e-02 0.0000000000000000e+00  3.7315998226404190e-02 6.0300998389720917e-02 0.0000000000000000e+00  3.3571999520063400e-02 5.9551000595092773e-02 0.0000000000000000e+00  3.9654999971389771e-02 6.2542997300624847e-02 0.0000000000000000e+00  -1.1747299879789352e-01 -8.7636999785900116e-02 0.0000000000000000e+00  -1.6167999804019928e-01 -2.1350499987602234e-01 0.0000000000000000e+00  -1.7094999551773071e-01 -2.2390100359916687e-01 0.0000000000000000e+00  -1.6598199307918549e-01 -2.1051600575447083e-01 0.0000000000000000e+00  -1.7350900173187256e-01 -2.0742300152778625e-01 0.0000000000000000e+00  -1.7424200475215912e-01 -2.2081400454044342e-01 0.0000000000000000e+00  -1.2012699991464615e-01 -1.8324099481105804e-01 0.0000000000000000e+00  -1.1352299898862839e-01 -1.8585400283336639e-01 0.0000000000000000e+00  -1.2286499887704849e-01 -1.9847799837589264e-01 0.0000000000000000e+00  -1.3171799480915070e-01 -2.1012799441814423e-01 0.0000000000000000e+00  -1.2411300092935562e-01 -2.1233899891376495e-01 0.0000000000000000e+00  -7.6869003474712372e-02 -9.6294999122619629e-02 0.0000000000000000e+00  -8.6507998406887054e-02 -1.1501699686050415e-01 0.0000000000000000e+00  -7.4683003127574921e-02 -1.0047999769449234e-01 0.0000000000000000e+00  -6.3328996300697327e-02 -8.6786001920700073e-02 0.0000000000000000e+00  -3.1888000667095184e-02 -8.3511002361774445e-02 0.0000000000000000e+00  -2.7026999741792679e-02 -5.8988999575376511e-02 0.0000000000000000e+00  -2.8085999190807343e-02 -5.7999998331069946e-02 0.0000000000000000e+00  9.0629998594522476e-03 -9.4389999285340309e-03 0.0000000000000000e+00  9.8219998180866241e-03 -1.0576999746263027e-02 0.0000000000000000e+00  1.0525999590754509e-02 -1.1986000463366508e-02 0.0000000000000000e+00  1.1284000240266323e-02 -1.3501999899744987e-02 0.0000000000000000e+00  -2.6000000070780516e-04 -2.0409999415278435e-03 0.0000000000000000e+00  3.3619999885559082e-03 -3.0169999226927757e-03 0.0000000000000000e+00  4.9850000068545341e-03 -3.9809998124837875e-03 0.0000000000000000e+00  2.0159999839961529e-03 -2.1599999163299799e-03 0.0000000000000000e+00  7.5179999694228172e-03 -7.1209999732673168e-03 0.0000000000000000e+00  -2.4669999256730080e-03 -2.9839999042451382e-03 0.0000000000000000e+00  4.8389998264610767e-03 -2.0490000024437904e-03 0.0000000000000000e+00  -1.5109999803826213e-03 -2.2670000325888395e-03 0.0000000000000000e+00  -3.4479999449104071e-03 -3.7199999205768108e-03 0.0000000000000000e+00  5.9899999760091305e-03 -3.7789999041706324e-03 0.0000000000000000e+00  9.6340002492070198e-03 -5.2299997769296169e-03 0.0000000000000000e+00  1.0598000138998032e-02 -6.0430001467466354e-03 0.0000000000000000e+00  8.6479997262358665e-03 -5.5379997938871384e-03 0.0000000000000000e+00  3.2210998237133026e-02 -2.0248999819159508e-02 0.0000000000000000e+00  3.7252999842166901e-02 -2.2902000695466995e-02 0.0000000000000000e+00  3.2242998480796814e-02 -2.6696000248193741e-02 0.0000000000000000e+00  1.5644999220967293e-02 -6.1960001476109028e-03 0.0000000000000000e+00  2.0090999081730843e-02 -4.4599999673664570e-03 0.0000000000000000e+00  2.3086000233888626e-02 -3.4139999188482761e-03 0.0000000000000000e+00  2.1963000297546387e-02 -4.2630000971257687e-03 0.0000000000000000e+00  2.0540999248623848e-02 -3.9780000224709511e-03 0.0000000000000000e+00  1.7865000292658806e-02 -5.1500000990927219e-03 0.0000000000000000e+00  2.6512999087572098e-02 -2.2980000358074903e-03 0.0000000000000000e+00  3.0338000506162643e-02 -1.1879999656230211e-03 0.0000000000000000e+00  2.8675999492406845e-02 -2.8029999230057001e-03 0.0000000000000000e+00  1.7288999632000923e-02 2.4561999365687370e-02 0.0000000000000000e+00  1.6579000279307365e-02 2.3563999682664871e-02 0.0000000000000000e+00  1.7379999160766602e-02 2.4800999090075493e-02 0.0000000000000000e+00  1.7521999776363373e-02 3.3720001578330994e-02 0.0000000000000000e+00  1.7936000600457191e-02 3.1587000936269760e-02 0.0000000000000000e+00  1.7683999612927437e-02 3.5204999148845673e-02 0.0000000000000000e+00  8.0340001732110977e-03 7.0814996957778931e-02 0.0000000000000000e+00  3.8689998909831047e-03 7.9864002764225006e-02 0.0000000000000000e+00  8.1369997933506966e-03 7.7333003282546997e-02 0.0000000000000000e+00  3.7779998965561390e-03 -2.4175999686121941e-02 0.0000000000000000e+00  1.9533999264240265e-02 3.1752001494169235e-02 0.0000000000000000e+00  1.9207000732421875e-02 3.3055998384952545e-02 0.0000000000000000e+00  2.0206000655889511e-02 3.3213999122381210e-02 0.0000000000000000e+00  2.0254999399185181e-02 3.1798001378774643e-02 0.0000000000000000e+00  1.9644999876618385e-02 3.0827000737190247e-02 0.0000000000000000e+00  1.9736999645829201e-02 2.9926000162959099e-02 0.0000000000000000e+00  1.8195999786257744e-02 3.7891000509262085e-02 0.0000000000000000e+00  1.8081000074744225e-02 3.6564998328685760e-02 0.0000000000000000e+00  1.6901999711990356e-02 4.0881998836994171e-02 0.0000000000000000e+00  1.7071999609470367e-02 3.9363000541925430e-02 0.0000000000000000e+00  1.8821999430656433e-02 2.9409000650048256e-02 0.0000000000000000e+00  2.0111000165343285e-02 3.0191000550985336e-02 0.0000000000000000e+00  1.9449999555945396e-02 3.2423999160528183e-02 0.0000000000000000e+00  1.9331999123096466e-02 3.4437000751495361e-02 0.0000000000000000e+00  1.9194999709725380e-02 3.7190001457929611e-02 0.0000000000000000e+00  1.9171999767422676e-02 3.6338001489639282e-02 0.0000000000000000e+00  1.9100999459624290e-02 3.1351000070571899e-02 0.0000000000000000e+00  -5.4099000990390778e-02 -4.6542000025510788e-02 0.0000000000000000e+00  -5.9703998267650604e-02 -5.5222000926733017e-02 0.0000000000000000e+00  -5.8205001056194305e-02 -5.1490999758243561e-02 0.0000000000000000e+00  -4.9929000437259674e-02 -2.5146000087261200e-02 0.0000000000000000e+00  -4.7125998884439468e-02 -2.9078999534249306e-02 0.0000000000000000e+00  -5.2795998752117157e-02 -3.4827999770641327e-02 0.0000000000000000e+00  -4.8071999102830887e-02 -3.7438001483678818e-02 0.0000000000000000e+00  -4.6371001750230789e-02 -3.7927001714706421e-02 0.0000000000000000e+00  -1.2756000272929668e-02 -1.6454000025987625e-02 0.0000000000000000e+00  -3.3704001456499100e-02 -2.0052999258041382e-02 0.0000000000000000e+00  -6.4540997147560120e-02 -4.2794998735189438e-02 0.0000000000000000e+00  -1.0830800235271454e-01 -9.6497997641563416e-02 0.0000000000000000e+00  -1.2654900550842285e-01 -1.3899700343608856e-01 0.0000000000000000e+00  -1.5146699547767639e-01 -1.4568600058555603e-01 0.0000000000000000e