<?xml version="1.0"?>
<VTKFile type="UnstructuredGrid"  version="0.1"  >
<UnstructuredGrid>
<Piece  NumberOfPoints="6340" NumberOfCells="12376">
<Points>
<DataArray  type="Float64"  NumberOfComponents="3"  format="ascii">-0.01941600069403648 0.02070700004696846 0  -0.02013899944722652 0.02136900089681149 0  -0.02034999988973141 0.02037999965250492 0  -0.02096500061452389 0.02115000039339066 0  -0.01964100077748299 0.01978800073266029 0  -0.01926499977707863 0.02158199995756149 0  -0.01980100013315678 0.02232700027525425 0  -0.01932800002396107 0.02313799969851971 0  -0.02032499946653843 0.02309600077569485 0  -0.018800999969244 0.02230600081384182 0  -0.008589999750256538 0.01787200011312962 0  -0.009216000325977802 0.01875600032508373 0  -0.00954699981957674 0.01781800016760826 0  -0.01017899997532368 0.01874100044369698 0  -0.0262449998408556 0.07813400030136108 0  -0.02721199952065945 0.07866600155830383 0  -0.02735500037670135 0.07786999642848969 0  -0.02682599984109402 0.07130900025367737 0  -0.02743499912321568 0.07213299721479416 0  -0.02766199968755245 0.07120800018310547 0  -0.02838999964296818 0.07174000144004822 0  -0.0130799999460578 0.08917500078678131 0  -0.01405199989676476 0.0891060009598732 0  -0.01348999980837107 0.08831000328063965 0  -0.02057000063359737 0.08369199931621552 0  -0.01957100071012974 0.08375799655914307 0  -0.02012900076806545 0.08455300331115723 0  -0.02001399919390678 0.0828929990530014 0  -0.02221699990332127 0.0246530007570982 0  -0.02125800028443336 0.02470899932086468 0  -0.02171500027179718 0.02552999928593636 0  -0.02212700061500072 0.02635600045323372 0  -0.02269300073385239 0.02548599988222122 0  -0.02074800059199333 0.02559000067412853 0  -0.02029800042510033 0.02475499920547009 0  -0.0193290002644062 0.02479599975049496 0  -0.01979099959135056 0.02562700025737286 0  -0.02175300009548664 0.02381099946796894 0  -0.02280499972403049 0.02381400018930435 0  -0.02209999971091747 0.02256999909877777 0  -0.02154899947345257 0.02188000082969666 0  -0.02128499932587147 0.02296300046145916 0  -0.02071000076830387 0.02217300049960613 0  -0.01609900034964085 0.02200599946081638 0  -0.01660400070250034 0.02112499997019768 0  -0.01562700048089027 0.02112000063061714 0  -0.0170070007443428 0.02210699953138828 0  -0.01794799976050854 0.02211499959230423 0  -0.01746100001037121 0.02299500070512295 0  0.04404599964618683 0.08276599645614624 0  0.04368700087070465 0.08186200261116028 0  0.04505100101232529 0.08214999735355377 0  0.04673900082707405 0.09436500072479248 0  0.04756699874997139 0.09474699944257736 0  0.0464709997177124 0.09523700177669525 0  0.02883600071072578 0.1031259968876839 0  0.02895900048315525 0.1022119969129562 0  0.0299139991402626 0.1026429980993271 0  0.0278450008481741 0.1035690009593964 0  0.02794799953699112 0.102461002767086 0  -0.006014000158756971 0.09828200191259384 0  -0.005011999979615211 0.09835200011730194 0  -0.005584000144153833 0.09916099905967712 0  -0.0045779999345541 0.09922900050878525 0  -0.01833700016140938 0.09875699877738953 0  -0.01877599954605103 0.09800200164318085 0  -0.01763200014829636 0.09817799925804138 0  -0.01934700086712837 0.09890100359916687 0  -0.01390600018203259 0.1053040027618408 0  -0.01409399975091219 0.1062169969081879 0  -0.01477499958127737 0.1054119989275932 0  -0.01035699993371964 0.09707000106573105 0  -0.009375999681651592 0.09715600311756134 0  -0.009948000311851501 0.09796500205993652 0  -0.01133999973535538 0.09697899967432022 0  -0.01076800003647804 0.09617099910974503 0  -0.01175099983811378 0.0960799977183342 0  -0.0140389995649457 0.09926000237464905 0  -0.01456900034099817 0.1000360026955605 0  -0.01505700033158064 0.09915400296449661 0  -0.0129009997472167 0.0976869985461235 0  -0.01389800012111664 0.09759999811649323 0  -0.01331300009042025 0.09680099785327911 0  0.01319599989801645 0.09417799860239029 0  0.01426700036972761 0.09415899962186813 0  0.01369599997997284 0.09499400109052658 0  0.007991000078618526 0.07857900112867355 0  0.008504999801516533 0.07770500332117081 0  0.009060000069439411 0.07855899631977081 0  -0.008329999633133411 0.01696999929845333 0  -0.007546000182628632 0.01715599931776524 0  -0.009158000349998474 0.01688399910926819 0  -0.01002200040966272 0.01679399982094765 0  -0.01348000019788742 0.01683999970555305 0  -0.01369899976998568 0.01793600060045719 0  -0.01429599989205599 0.0170499999076128 0  -0.01292399968951941 0.01773199997842312 0  -0.01292700041085482 0.01877100020647049 0  -0.01214499957859516 0.01788699999451637 0  -0.01242600008845329 0.02170900069177151 0  -0.01290499977767467 0.02075700089335442 0  -0.01201300043612719 0.02077800035476685 0  -0.01159199979156256 0.01989899948239326 0  -0.01105200033634901 0.02073399908840656 0  -0.01249099988490343 0.01978500001132488 0  -0.013327999971807 0.02174299955368042 0  -0.01470400020480156 0.02099199965596199 0  -0.01515099965035915 0.02195700071752071 0  -0.01423299964517355 0.02184600010514259 0  -0.009672000072896481 0.01967900060117245 0  -0.01119100023061037 0.03074399940669537 0  -0.01169000007212162 0.02988000027835369 0  -0.01074600033462048 0.02980699948966503 0  -0.006020999979227781 0.02933800034224987 0  -0.006471000146120787 0.03030199930071831 0  -0.006969000212848186 0.02944600023329258 0  -0.008751999586820602 0.01970699988305569 0  -0.006391999777406454 0.01904400065541267 0  -0.007329999934881926 0.01892299950122833 0  -0.006603999994695187 0.01819700002670288 0  -0.006697999779134989 0.0173569992184639 0  -0.005760000087320805 0.01758000068366528 0  0.04865299910306931 0.0904259979724884 0  0.04955599829554558 0.08993600308895111 0  0.04928600043058395 0.09110700339078903 0  0.0481799989938736 0.0912339985370636 0  0.01609200052917004 0.05874599888920784 0  0.01714199967682362 0.05863500013947487 0  0.01668200083076954 0.05953399837017059 0  0.02959099970757961 0.04358600080013275 0  0.03004300035536289 0.04252900183200836 0  0.03054999932646751 0.04325399920344353 0  0.03194399923086166 0.04779599979519844 0  0.03286400064826012 0.04711699858307838 0  0.03325299918651581 0.04787600040435791 0  0.03183100000023842 0.05131300166249275 0  0.03084499947726727 0.05137600004673004 0  0.0313589982688427 0.05042900145053864 0  0.03086799941956997 0.04959399998188019 0  0.03191699832677841 0.04948500171303749 0  0.03033800050616264 0.05052699893712997 0  0.02983300015330315 0.05146300047636032 0  0.0298020001500845 0.0497170016169548 0  0.02920899912714958 0.0489410012960434 0  0.02873199991881847 0.04983200132846832 0  0.02812799997627735 0.04904999956488609 0  0.04601899906992912 0.09277199953794479 0  0.04490900039672852 0.0927949994802475 0  0.0454929992556572 0.09197299927473068 0  0.04440499842166901 0.0919639989733696 0  0.007083999924361706 0.02392400056123734 0  0.007852000184357166 0.02440099976956844 0  0.007110000122338533 0.0250059999525547 0  0.007945000194013119 0.02537799999117851 0  0.02766199968755245 0.04994200170040131 0  0.02354400046169758 0.05203799903392792 0  0.02308199927210808 0.05293599888682365 0  0.0224820002913475 0.05213699862360954 0  0.02414100058376789 0.05283800140023232 0  0.03036900050938129 0.05231799930334091 0  0.01834600046277046 0.03520600125193596 0  0.01744100078940392 0.03505999967455864 0  0.01784900017082691 0.03416400030255318 0  0.01285700034350157 0.04045300185680389 0  0.01190000027418137 0.04044099897146225 0  0.01235600002110004 0.03954900056123734 0  0.01139799971133471 0.03953799977898598 0  0.01094300020486116 0.0404289998114109 0  0.01089700032025576 0.03863200172781944 0  0.01185400038957596 0.03864600136876106 0  0.01240199990570545 0.0413459986448288 0  -0.02824800089001656 0.07263699918985367 0  -0.02713000029325485 0.07298099994659424 0  -0.02811799943447113 0.07345700263977051 0  -0.02645800076425076 0.07222899794578552 0  -0.02605099976062775 0.07308000326156616 0  -0.02500499971210957 0.07318300008773804 0  -0.02547400072216988 0.07397300004959106 0  -0.02443699911236763 0.07240299880504608 0  -0.02397999912500381 0.07326900213956833 0  -0.02448800019919872 0.07405900210142136 0  -0.02850200049579144 0.07080800086259842 0  -0.01968199945986271 0.08540999889373779 0  -0.02068299986422062 0.08534500002861023 0  -0.01894900016486645 0.09463399648666382 0  -0.01992800086736679 0.09460599720478058 0  -0.01936299912631512 0.09379400312900543 0  -0.02033800072968006 0.09376999735832214 0  -0.01977399922907352 0.09295199811458588 0  -0.01783799938857555 0.09734100103378296 0  -0.01689100079238415 0.09740100055932999 0  -0.01657599955797195 0.09825299680233002 0  -0.01446299999952316 0.08824300020933151 0  -0.01193299982696772 0.08176100254058838 0  -0.01093799993395805 0.08182699978351593 0  -0.01149499975144863 0.08262400329113007 0  -0.01107299979776144 0.08348800241947174 0  -0.01051000040024519 0.0826909989118576 0  -0.01582000032067299 0.07981199771165848 0  -0.01626699976623058 0.07893999665975571 0  -0.01527099963277578 0.0790100023150444 0  -0.01427500043064356 0.0790800005197525 0  -0.01472000032663345 0.07820799946784973 0  -0.01901599951088428 0.08296000212430954 0  -0.01846599951386452 0.08215600252151489 0  -0.01946599967777729 0.08208800107240677 0  -0.0204670000821352 0.08202099800109863 0  -0.02503300085663795 0.0748559981584549 0  -0.02559299953281879 0.07734899967908859 0  -0.02519799955189228 0.07820899784564972 0  -0.02317900024354458 0.02447200007736683 0  -0.02353999949991703 0.02511000074446201 0  -0.02381299994885921 0.02575499936938286 0  -0.02410599961876869 0.0264509990811348 0  -0.02307499945163727 0.02635299973189831 0  -0.01982600055634975 0.02394100092351437 0  -0.01884800009429455 0.02397000044584274 0  -0.02080699987709522 0.02388099953532219 0  -0.02244199998676777 0.02317300066351891 0  -0.01755600050091743 0.01828699931502342 0  -0.01718099974095821 0.01905100047588348 0  -0.01829000003635883 0.01865999959409237 0  -0.01680300012230873 0.0179040003567934 0  -0.01835899986326694 0.02310699969530106 0  -0.01652799919
[...]
<PointData  Vectors="velocity"> 
<DataArray  type="Float64"  Name="velocity"  NumberOfComponents="3" format="ascii">2.8649999294430017e-03 -1.1399999493733048e-03 0.0000000000000000e+00  2.3280000314116478e-03 -1.0789999505504966e-03 0.0000000000000000e+00  2.2670000325888395e-03 -7.5599999399855733e-04 0.0000000000000000e+00  3.8590000476688147e-03 -1.8169999821111560e-03 0.0000000000000000e+00  9.6600002143532038e-04 -7.5599999399855733e-04 0.0000000000000000e+00  4.2480002157390118e-03 -1.4120000414550304e-03 0.0000000000000000e+00  3.9019999094307423e-03 -1.4080000109970570e-03 0.0000000000000000e+00  5.4080002009868622e-03 -2.0300000905990601e-03 0.0000000000000000e+00  3.4610000438988209e-03 -1.4449999434873462e-03 0.0000000000000000e+00  5.9799998998641968e-03 -1.9789999350905418e-03 0.0000000000000000e+00  1.0505000129342079e-02 -9.3750003725290298e-03 0.0000000000000000e+00  3.5049999132752419e-03 -1.2764000333845615e-02 0.0000000000000000e+00  1.2271000072360039e-02 -8.6099999025464058e-03 0.0000000000000000e+00  1.0147999972105026e-02 -9.7939996048808098e-03 0.0000000000000000e+00  -2.2216999903321266e-02 -5.5769000202417374e-02 0.0000000000000000e+00  7.5550000183284283e-03 -5.8173999190330505e-02 0.0000000000000000e+00  7.5550000183284283e-03 -5.8173999190330505e-02 0.0000000000000000e+00  -1.7920000478625298e-02 -8.1629998981952667e-02 0.0000000000000000e+00  -1.5814000740647316e-02 -6.9551996886730194e-02 0.0000000000000000e+00  -1.5128999948501587e-02 -6.9733001291751862e-02 0.0000000000000000e+00  8.3109997212886810e-03 -5.6662999093532562e-02 0.0000000000000000e+00  -1.2270899862051010e-01 -9.3974001705646515e-02 0.0000000000000000e+00  -1.0904899984598160e-01 -7.9088002443313599e-02 0.0000000000000000e+00  -1.2716099619865417e-01 -1.0058200359344482e-01 0.0000000000000000e+00  -5.7849999517202377e-02 -6.9115996360778809e-02 0.0000000000000000e+00  -7.0793002843856812e-02 -8.0118998885154724e-02 0.0000000000000000e+00  -5.8655001223087311e-02 -6.3348002731800079e-02 0.0000000000000000e+00  -7.0156000554561615e-02 -8.6240001022815704e-02 0.0000000000000000e+00  1.2229999992996454e-03 -1.3520000502467155e-03 0.0000000000000000e+00  2.2899999748915434e-03 -1.8550000386312604e-03 0.0000000000000000e+00  1.4609999489039183e-03 -2.2060000337660313e-03 0.0000000000000000e+00  6.6700001480057836e-04 -2.5780000723898411e-03 0.0000000000000000e+00  6.8200001260265708e-04 -1.5829999465495348e-03 0.0000000000000000e+00  2.6879999786615372e-03 -2.8739999979734421e-03 0.0000000000000000e+00  3.7509999237954617e-03 -2.4550000671297312e-03 0.0000000000000000e+00  5.5350000038743019e-03 -3.1600000802427530e-03 0.0000000000000000e+00  4.2159999720752239e-03 -3.6299999337643385e-03 0.0000000000000000e+00  1.6299999551847577e-03 -1.1589999776333570e-03 0.0000000000000000e+00  9.0190004557371140e-03 -5.9969997964799404e-03 0.0000000000000000e+00  6.8000000901520252e-03 -3.7779998965561390e-03 0.0000000000000000e+00  5.3710001520812511e-03 -2.8250000905245543e-03 0.0000000000000000e+00  1.8899999558925629e-03 -1.0629999451339245e-03 0.0000000000000000e+00  2.1760000381618738e-03 -1.0580000234767795e-03 0.0000000000000000e+00  1.1800000444054604e-02 -4.0090000256896019e-03 0.0000000000000000e+00  9.6720000728964806e-03 -3.3460000995546579e-03 0.0000000000000000e+00  1.1501000262796879e-02 -4.4180001132190228e-03 0.0000000000000000e+00  9.9090002477169037e-03 -3.3189998939633369e-03 0.0000000000000000e+00  7.7760000713169575e-03 -2.5130000431090593e-03 0.0000000000000000e+00  9.5269996672868729e-03 -3.3289999701082706e-03 0.0000000000000000e+00  2.7969999238848686e-02 4.8742000013589859e-02 0.0000000000000000e+00  2.7822000905871391e-02 4.9669001251459122e-02 0.0000000000000000e+00  -1.8131999298930168e-02 -2.8193999081850052e-02 0.0000000000000000e+00  2.8531000018119812e-02 4.3499000370502472e-02 0.0000000000000000e+00  2.7921000495553017e-02 4.1094999760389328e-02 0.0000000000000000e+00  2.8725000098347664e-02 4.3297998607158661e-02 0.0000000000000000e+00  -3.0595999211072922e-02 -1.7782000824809074e-02 0.0000000000000000e+00  -3.2356001436710358e-02 -7.8330002725124359e-03 0.0000000000000000e+00  -2.4596000090241432e-02 -6.7070000804960728e-03 0.0000000000000000e+00  -3.5780001431703568e-02 -2.8176000341773033e-02 0.0000000000000000e+00  -3.8481999188661575e-02 -1.6619000583887100e-02 0.0000000000000000e+00  -8.6638003587722778e-02 -7.3059998452663422e-02 0.0000000000000000e+00  -1.0033900290727615e-01 -8.8546000421047211e-02 0.0000000000000000e+00  -7.1888998150825500e-02 -6.6772997379302979e-02 0.0000000000000000e+00  -8.4890000522136688e-02 -8.2028001546859741e-02 0.0000000000000000e+00  3.3245000988245010e-02 5.0423998385667801e-02 0.0000000000000000e+00  2.6376999914646149e-02 4.6905998140573502e-02 0.0000000000000000e+00  2.4194000288844109e-02 4.8891998827457428e-02 0.0000000000000000e+00  -1.5146999619901180e-02 -5.3640998899936676e-02 0.0000000000000000e+00  3.9372999221086502e-02 4.2819999158382416e-02 0.0000000000000000e+00  -3.0606999993324280e-02 -5.5672999471426010e-02 0.0000000000000000e+00  -2.8454000130295753e-02 -5.5403001606464386e-02 0.0000000000000000e+00  -5.4428998380899429e-02 -1.7860999330878258e-02 0.0000000000000000e+00  -6.6596001386642456e-02 -3.2894000411033630e-02 0.0000000000000000e+00  -3.7776999175548553e-02 -1.1928999796509743e-02 0.0000000000000000e+00  -4.2998999357223511e-02 -3.9789997972548008e-03 0.0000000000000000e+00  -6.4909003674983978e-02 -2.3664999753236771e-02 0.0000000000000000e+00  -5.3213000297546387e-02 -1.0692999698221684e-02 0.0000000000000000e+00  2.1666999906301498e-02 4.5288998633623123e-02 0.0000000000000000e+00  3.0721999704837799e-02 5.0271999090909958e-02 0.0000000000000000e+00  2.5622000917792320e-02 4.9040000885725021e-02 0.0000000000000000e+00  -9.1939996927976608e-03 2.4113999679684639e-02 0.0000000000000000e+00  -1.4609999489039183e-03 3.2405000180006027e-02 0.0000000000000000e+00  -2.2071000188589096e-02 1.9379999488592148e-02 0.0000000000000000e+00  -2.6447701454162598e-01 -6.0793999582529068e-02 0.0000000000000000e+00  -2.5413399934768677e-01 -4.5226998627185822e-02 0.0000000000000000e+00  -2.5746798515319824e-01 -5.9664998203516006e-02 0.0000000000000000e+00  -8.1281997263431549e-02 -7.1051001548767090e-02 0.0000000000000000e+00  -6.4530998468399048e-02 -5.2857998758554459e-02 0.0000000000000000e+00  -7.4589997529983521e-02 -4.6004001051187515e-02 0.0000000000000000e+00  -5.2889999933540821e-03 -9.8219998180866241e-03 0.0000000000000000e+00  -5.2889999933540821e-03 -1.0743999853730202e-02 0.0000000000000000e+00  -5.2889999933540821e-03 -9.0969996526837349e-03 0.0000000000000000e+00  -5.2889999933540821e-03 -8.3410004153847694e-03 0.0000000000000000e+00  -5.2889999933540821e-03 -4.5329998247325420e-03 0.0000000000000000e+00  1.2005000375211239e-02 -3.4119999036192894e-03 0.0000000000000000e+00  -4.7940001823008060e-03 -3.7909999955445528e-03 0.0000000000000000e+00  1.4147000387310982e-02 -3.3450000919401646e-03 0.0000000000000000e+00  1.2842999771237373e-02 -6.1220000497996807e-03 0.0000000000000000e+00  1.5588999725878239e-02 -4.3109999969601631e-03 0.0000000000000000e+00  1.5243000350892544e-02 -6.2090000137686729e-03 0.0000000000000000e+00  1.3871000148355961e-02 -6.9470000453293324e-03 0.0000000000000000e+00  1.3973999768495560e-02 -7.2679999284446239e-03 0.0000000000000000e+00  1.3238999992609024e-02 -7.8959995880723000e-03 0.0000000000000000e+00  1.3458999805152416e-02 -7.4280002154409885e-03 0.0000000000000000e+00  1.3218999840319157e-02 -7.3509998619556427e-03 0.0000000000000000e+00  1.4976999722421169e-02 -6.0220002196729183e-03 0.0000000000000000e+00  1.2567999772727489e-02 -5.4779998026788235e-03 0.0000000000000000e+00  1.3480000197887421e-02 -4.7399997711181641e-03 0.0000000000000000e+00  1.4506000094115734e-02 -5.4529998451471329e-03 0.0000000000000000e+00  8.7829995900392532e-03 -9.8519995808601379e-03 0.0000000000000000e+00  3.6123000085353851e-02 -6.9800000637769699e-03 0.0000000000000000e+00  3.1357001513242722e-02 -5.4159997962415218e-03 0.0000000000000000e+00  3.5654000937938690e-02 -1.9799999427050352e-03 0.0000000000000000e+00  5.0135999917984009e-02 4.2820000089704990e-03 0.0000000000000000e+00  5.5257998406887054e-02 3.9750002324581146e-03 0.0000000000000000e+00  4.8560000956058502e-02 5.0800000317394733e-03 0.0000000000000000e+00  4.4959997758269310e-03 -1.1176000349223614e-02 0.0000000000000000e+00  -1.6583999618887901e-02 -1.8603000789880753e-02 0.0000000000000000e+00  -1.4069000259041786e-02 -1.8384000286459923e-02 0.0000000000000000e+00  -9.1000000247731805e-04 -1.3553000055253506e-02 0.0000000000000000e+00  -5.2889999933540821e-03 -1.1739999987185001e-02 0.0000000000000000e+00  -5.2889999933540821e-03 -1.2844000011682510e-02 0.0000000000000000e+00  2.6293000206351280e-02 3.7432000041007996e-02 0.0000000000000000e+00  2.5134000927209854e-02 3.4396998584270477e-02 0.0000000000000000e+00  2.5806000456213951e-02 3.6240998655557632e-02 0.0000000000000000e+00  2.7047999203205109e-02 3.9505001157522202e-02 0.0000000000000000e+00  1.2431100010871887e-01 1.2526400387287140e-01 0.0000000000000000e+00  1.2236300110816956e-01 1.3213899731636047e-01 0.0000000000000000e+00  1.2086299806833267e-01 1.3138499855995178e-01 0.0000000000000000e+00  2.7429999783635139e-02 3.3438999205827713e-02 0.0000000000000000e+00  -4.2550000362098217e-03 -2.4731000885367393e-02 0.0000000000000000e+00  -4.0099998004734516e-03 -2.5221999734640121e-02 0.0000000000000000e+00  2.7476999908685684e-02 5.2443999797105789e-02 0.0000000000000000e+00  -3.0219999607652426e-03 -2.5422999635338783e-02 0.0000000000000000e+00  -3.0219999607652426e-03 -2.5186000391840935e-02 0.0000000000000000e+00  4.4355001300573349e-02 8.5698001086711884e-02 0.0000000000000000e+00  5.3536001592874527e-02 9.5829002559185028e-02 0.0000000000000000e+00  4.5226000249385834e-02 8.1940002739429474e-02 0.0000000000000000e+00  4.5981001108884811e-02 7.8832998871803284e-02 0.0000000000000000e+00  3.6019001156091690e-02 6.7777998745441437e-02 0.0000000000000000e+00  5.5013000965118408e-02 9.2546999454498291e-02 0.0000000000000000e+00  6.2707997858524323e-02 1.0507199913263321e-01 0.0000000000000000e+00  5.6476000696420670e-02 8.9907996356487274e-02 0.0000000000000000e+00  5.8853998780250549e-02 8.7747000157833099e-02 0.0000000000000000e+00  6.6482998430728912e-02 9.9521003663539886e-02 0.0000000000000000e+00  7.0555001497268677e-02 9.6239000558853149e-02 0.0000000000000000e+00  2.9348000884056091e-02 4.6705998480319977e-02 0.0000000000000000e+00  3.0050000175833702e-02 5.0797000527381897e-02 0.0000000000000000e+00  2.9610000550746918e-02 4.9040000885725021e-02 0.0000000000000000e+00  2.9936999082565308e-02 5.3746998310089111e-02 0.0000000000000000e+00  -6.2779998406767845e-03 -2.3421000689268112e-02 0.0000000000000000e+00  -6.5310001373291016e-03 -2.3421000689268112e-02 0.0000000000000000e+00  -1.7400000244379044e-02 -1.0723000392317772e-02 0.0000000000000000e+00  -1.5564000234007835e-02 -9.6859997138381004e-03 0.0000000000000000e+00  7.6091997325420380e-02 1.0762500017881393e-01 0.0000000000000000e+00  1.0454899817705154e-01 1.3108600676059723e-01 0.0000000000000000e+00  1.0651099681854248e-01 1.3433800637722015e-01 0.0000000000000000e+00  1.0941799730062485e-01 1.3004000484943390e-01 0.0000000000000000e+00  1.0201899707317352e-01 1.3487799465656281e-01 0.0000000000000000e+00  6.0221001505851746e-02 1.0841699689626694e-01 0.0000000000000000e+00  4.2851001024246216e-02 2.1570000797510147e-02 0.0000000000000000e+00  4.6941999346017838e-02 2.4198999628424644e-02 0.0000000000000000e+00  3.3240001648664474e-02 1.6806999221444130e-02 0.0000000000000000e+00  1.3545000553131104e-01 6.0651000589132309e-02 0.0000000000000000e+00  1.3958600163459778e-01 5.9083998203277588e-02 0.0000000000000000e+00  1.2932500243186951e-01 5.6324001401662827e-02 0.0000000000000000e+00  1.3392800092697144e-01 5.4788000881671906e-02 0.0000000000000000e+00  1.4304099977016449e-01 5.7502999901771545e-02 0.0000000000000000e+00  1.2955099344253540e-01 4.9601998180150986e-02 0.0000000000000000e+00  1.2457600235939026e-01 5.1096998155117035e-02 0.0000000000000000e+00  1.4320899546146393e-01 6.3561998307704926e-02 0.0000000000000000e+00  8.0549996346235275e-03 -5.6919001042842865e-02 0.0000000000000000e+00  -1.8089000135660172e-02 -7.0877999067306519e-02 0.0000000000000000e+00  7.8210001811385155e-03 -5.7153001427650452e-02 0.0000000000000000e+00  -2.0021000877022743e-02 -8.3467997610569000e-02 0.0000000000000000e+00  -2.2221999242901802e-02 -8.5566997528076172e-02 0.0000000000000000e+00  -2.7310999110341072e-02 -1.0146000236272812e-01 0.0000000000000000e+00  -2.6672000065445900e-02 -9.0291000902652740e-02 0.0000000000000000e+00  -3.0028000473976135e-02 -1.1511600017547607e-01 0.0000000000000000e+00  -3.3070001751184464e-02 -1.1766800284385681e-01 0.0000000000000000e+00  -3.1954001635313034e-02 -1.0495699942111969e-01 0.0000000000000000e+00  8.5739996284246445e-03 -5.5872000753879547e-02 0.0000000000000000e+00  -6.0913000255823135e-02 -5.7881999760866165e-02 0.0000000000000000e+00  -4.9972999840974808e-02 -4.8808000981807709e-02 0.0000000000000000e+00  1.1719999602064490e-03 3.0150000005960464e-02 0.0000000000000000e+00  6.3430001027882099e-03 3.0643999576568604e-02 0.0000000000000000e+00  -1.0900000343099236e-03 2.5448000058531761e-02 0.0000000000000000e+00  4.2369998991489410e-03 2.5496000424027443e-02 0.0000000000000000e+00  -7.7610001899302006e-03 1.9159000366926193e-02 0.0000000000000000e+00  1.9812000915408134e-02 4.6261001378297806e-02 0.0000000000000000e+00  1.5917999669909477e-02 4.5042999088764191e-02 0.0000000000000000e+00  2.0802000537514687e-02 4.8535998910665512e-02 0.0000000000000000e+00  -1.1364500224590302e-01 -8.6216002702713013e-02 0.0000000000000000e+00  -1.6755099594593048e-01 -2.0314300060272217e-01 0.0000000000000000e+00  -1.7657800018787384e-01 -2.1235300600528717e-01 0.0000000000000000e+00  -1.7110000550746918e-01 -1.9959799945354462e-01 0.0000000000000000e+00  -1.7722399532794952e-01 -1.9643600285053253e-01 0.0000000000000000e+00  -1.7915600538253784e-01 -2.0913100242614746e-01 0.0000000000000000e+00  -1.2259300053119659e-01 -1.7998999357223511e-01 0.0000000000000000e+00  -1.1393699795007706e-01 -1.8370999395847321e-01 0.0000000000000000e+00  -1.2369500100612640e-01 -1.9423200190067291e-01 0.0000000000000000e+00  -1.3335800170898438e-01 -2.0396000146865845e-01 0.0000000000000000e+00  -1.2574000656604767e-01 -2.0738199353218079e-01 0.0000000000000000e+00  -8.2138001918792725e-02 -9.8119996488094330e-02 0.0000000000000000e+00  -9.0346001088619232e-02 -1.1598599702119827e-01 0.0000000000000000e+00  -7.7978000044822693e-02 -1.0321900248527527e-01 0.0000000000000000e+00  -6.6143997013568878e-02 -9.0916000306606293e-02 0.0000000000000000e+00  -3.0121000483632088e-02 -9.1867998242378235e-02 0.0000000000000000e+00  -2.6078000664710999e-02 -6.8109996616840363e-02 0.0000000000000000e+00  -2.8844999149441719e-02 -6.7668996751308441e-02 0.0000000000000000e+00  1.0195000097155571e-02 -7.1729999035596848e-03 0.0000000000000000e+00  1.1332999914884567e-02 -8.3109997212886810e-03 0.0000000000000000e+00  1.2388999573886395e-02 -9.7190001979470253e-03 0.0000000000000000e+00  1.3526000082492828e-02 -1.1235999874770641e-02 0.0000000000000000e+00  1.8699999782256782e-04 -1.8619999755173922e-03 0.0000000000000000e+00  4.6540000475943089e-03 -2.1740000229328871e-03 0.0000000000000000e+00  6.6359997726976871e-03 -2.8850000817328691e-03 0.0000000000000000e+00  2.9440000653266907e-03 -1.5699999639764428e-03 0.0000000000000000e+00  7.8760003671050072e-03 -4.8540001735091209e-03 0.0000000000000000e+00  -2.2279999684542418e-03 -1.2339999666437507e-03 0.0000000000000000e+00  4.7369999811053276e-03 -1.8370000179857016e-03 0.0000000000000000e+00  -1.5109999803826213e-03 -7.5599999399855733e-04 0.0000000000000000e+00  -2.9639999847859144e-03 -1.7239999724552035e-03 0.0000000000000000e+00  7.4860001914203167e-03 -2.7399999089539051e-03 0.0000000000000000e+00  1.1620000004768372e-02 -3.9559998549520969e-03 0.0000000000000000e+00  1.3031999580562115e-02 -4.4309999793767929e-03 0.0000000000000000e+00  1.0805999860167503e-02 -4.1189999319612980e-03 0.0000000000000000e+00  3.1305998563766479e-02 -1.0670999996364117e-02 0.0000000000000000e+00  3.6166001111268997e-02 -1.3388000428676605e-02 0.0000000000000000e+00  3.0892999842762947e-02 -1.7256999388337135e-02 0.0000000000000000e+00  1.4945000410079956e-02 -6.2049999833106995e-03 0.0000000000000000e+00  1.7898999154567719e-02 -2.4059999268501997e-03 0.0000000000000000e+00  2.0410999655723572e-02 -2.1699999342672527e-04 0.0000000000000000e+00  2.0870000123977661e-02 -7.0999999297782779e-04 0.0000000000000000e+00  1.6938000917434692e-02 -2.2450000979006290e-03 0.0000000000000000e+00  1.5224999748170376e-02 -4.2400001548230648e-03 0.0000000000000000e+00  2.3606000468134880e-02 1.8019999843090773e-03 0.0000000000000000e+00  2.7220999822020531e-02 3.4819999709725380e-03 0.0000000000000000e+00  2.6877999305725098e-02 2.9380000196397305e-03 0.0000000000000000e+00  2.5820000097155571e-02 3.6763999611139297e-02 0.0000000000000000e+00  2.4879999458789825e-02 3.4403000026941299e-02 0.0000000000000000e+00  2.5864999741315842e-02 3.6582000553607941e-02 0.0000000000000000e+00  2.9288999736309052e-02 5.2230998873710632e-02 0.0000000000000000e+00  2.9304999858140945e-02 4.9226000905036926e-02 0.0000000000000000e+00  2.9386000707745552e-02 5.4703999310731888e-02 0.0000000000000000e+00  2.5411000475287437e-02 9.4622999429702759e-02 0.0000000000000000e+00  2.2879000753164291e-02 1.0472899675369263e-01 0.0000000000000000e+00  2.6497999206185341e-02 1.0107299685478210e-01 0.0000000000000000e+00  -1.8131999298930168e-02 -2.7953999117016792e-02 0.0000000000000000e+00  2.9094999656081200e-02 4.7049999237060547e-02 0.0000000000000000e+00  2.8867000713944435e-02 4.8719000071287155e-02 0.0000000000000000e+00  2.9249999672174454e-02 5.0324000418186188e-02 0.0000000000000000e+00  2.9542999342083931e-02 4.8525001853704453e-02 0.0000000000000000e+00  2.9231000691652298e-02 4.5906998217105865e-02 0.0000000000000000e+00  2.9218999668955803e-02 4.4732000678777695e-02 0.0000000000000000e+00  2.9396999627351761e-02 5.9066999703645706e-02 0.0000000000000000e+00  2.9585000127553940e-02 5.7112000882625580e-02 0.0000000000000000e+00  2.8610000386834145e-02 6.3101999461650848e-02 0.0000000000000000e+00  2.9078999534249306e-02 6.0841001570224762e-02 0.0000000000000000e+00  2.8944000601768494e-02 4.4856000691652298e-02 0.0000000000000000e+00  2.9379000887274742e-02 4.6271998435258865e-02 0.0000000000000000e+00  2.9980000108480453e-02 4.9616999924182892e-02 0.0000000000000000e+00  2.9727000743150711e-02 5.2556000649929047e-02 0.0000000000000000e+00  2.9392000287771225e-02 5.7087000459432602e-02 0.0000000000000000e+00  2.9740000143647194e-02 5.6216999888420105e-02 0.0000000000000000e+00  2.9738999903202057e-02 4.8147000372409821e-02 0.0000000000000000e+00  -4.4433999806642532e-02 -4.9832999706268311e-02 0.0000000000000000e+00  -4.7488000243902206e-02 -5.9659000486135483e-02 0.0000000000000000e+00  -5.1414001733064651e-02 -5.2416000515222549e-02 0.0000000000000000e+00  -4.7600999474525452e-02 -2.1154999732971191e-02 0.0000000000000000e+00  -4.0734000504016876e-02 -2.8232000768184662e-02 0.0000000000000000e+00  -4.7008000314235687e-02 -3.3663000911474228e-02 0.0000000000000000e+00  -4.0479999035596848e-02 -3.9126001298427582e-02 0.0000000000000000e+00  -6.0986999422311783e-02 -4.1726998984813690e-02 0.0000000000000000e+00  -3.6118999123573303e-02 -2.0733000710606575e-02 0.0000000000000000e+00  -4.8774998635053635e-02 -2.6008000597357750e-02 0.0000000000000000e+00  -7.9233996570110321e-02 -4.8236999660730362e-02 0.0000000000000000e+00  -1.2026199698448181e-01 -9.5830000936985016e-02 0.0000000000000000e+00  -1.4442400634288788e-01 -1.3456900417804718e-01 0.0000000000000000e+00  -1.5938200056552887e-01 -1.4068099856376648e-01 0.0000000000000000