<?xml version="1.0"?>
<VTKFile type="UnstructuredGrid"  version="0.1"  >
<UnstructuredGrid>
<Piece  NumberOfPoints="6340" NumberOfCells="12376">
<Points>
<DataArray  type="Float64"  NumberOfComponents="3"  format="ascii">-0.01929900050163269 0.02065500058233738 0  -0.02002100087702274 0.02131699956953526 0  -0.02023999951779842 0.02033000066876411 0  -0.0208129994571209 0.02108499966561794 0  -0.01951999962329865 0.01973400078713894 0  -0.01915200054645538 0.02153199911117554 0  -0.01968099921941757 0.02227400057017803 0  -0.01921500079333782 0.02308700047433376 0  -0.02016700059175491 0.023029999807477 0  -0.01868800073862076 0.02225599996745586 0  -0.007822000421583652 0.01811300031840801 0  -0.008511999621987343 0.01894699968397617 0  -0.008837999776005745 0.01800600066781044 0  -0.009535999968647957 0.01888000033795834 0  -0.02663500048220158 0.07547099888324738 0  -0.02760099992156029 0.07591299712657928 0  -0.02776799909770489 0.07511399686336517 0  -0.0269750002771616 0.0688060000538826 0  -0.02766299992799759 0.06954099982976913 0  -0.02781900018453598 0.06863600015640259 0  -0.02861000038683414 0.06908000260591507 0  -0.01337399985641241 0.0870399996638298 0  -0.01429499965161085 0.08693099766969681 0  -0.01369400043040514 0.08624099940061569 0  -0.02060299925506115 0.08143900334835052 0  -0.01959099993109703 0.08158200234174728 0  -0.02012800052762032 0.08230199664831161 0  -0.02007099986076355 0.08071299642324448 0  -0.02188999950885773 0.02451400086283684 0  -0.02101900056004524 0.02461300045251846 0  -0.021399000659585 0.02539600059390068 0  -0.02173800021409988 0.02618600055575371 0  -0.02228699997067451 0.02530799992382526 0  -0.02051999978721142 0.0254989992827177 0  -0.02011100016534328 0.0246799997985363 0  -0.0191859994083643 0.02473600022494793 0  -0.01961099915206432 0.0255539994686842 0  -0.0215039998292923 0.02371199987828732 0  -0.02245800010859966 0.02366499975323677 0  -0.02187000028789043 0.02247999981045723 0  -0.02135599963366985 0.02180299907922745 0  -0.02108499966561794 0.02288400009274483 0  -0.02055099979043007 0.02210699953138828 0  -0.01592599973082542 0.02195299975574017 0  -0.01643699966371059 0.02107100002467632 0  -0.01541499979794025 0.02106899954378605 0  -0.01687600091099739 0.02205099910497665 0  -0.01782600022852421 0.02206199988722801 0  -0.01734000071883202 0.02294199913740158 0  0.03767900168895721 0.07948099821805954 0  0.03756200149655342 0.0785679966211319 0  0.03868899866938591 0.07874800264835358 0  0.03837199881672859 0.09076599776744843 0  0.03903099894523621 0.09107500314712524 0  0.03803300112485886 0.09158200025558472 0  0.02196400053799152 0.09973900020122528 0  0.02218399941921234 0.09889300167560577 0  0.02294700033962727 0.09923999756574631 0  0.0210609994828701 0.1001980006694794 0  0.02128900028765202 0.09917400032281876 0  -0.008352000266313553 0.09516800194978714 0  -0.007441999856382608 0.09536200016736984 0  -0.008086999878287315 0.09603100270032883 0  -0.007162000052630901 0.09623199701309204 0  -0.01934700086712837 0.09527699649333954 0  -0.01966699957847595 0.09460599720478058 0  -0.01862300001084805 0.09479299932718277 0  -0.020304000005126 0.09537199884653091 0  -0.01643100008368492 0.1009100005030632 0  -0.01675599999725819 0.1016910001635551 0  -0.01719699986279011 0.1009820029139519 0  -0.01191600039601326 0.0939129963517189 0  -0.01108200009912252 0.09400399774312973 0  -0.01171800028532743 0.09468699991703033 0  -0.01276300009340048 0.09383100271224976 0  -0.01212699990719557 0.09314899891614914 0  -0.01297399960458279 0.0930669978260994 0  -0.01551000028848648 0.09574999660253525 0  -0.01610399968922138 0.09640499949455261 0  -0.01640300080180168 0.0956529974937439 0  -0.01425100024789572 0.09442300349473953 0  -0.01513299997895956 0.09434200078248978 0  -0.01448999997228384 0.09366799890995026 0  0.009723000228404999 0.09231899678707123 0  0.01063999999314547 0.09224700182676315 0  0.01004699990153313 0.09304399788379669 0  0.00723899994045496 0.07824999839067459 0  0.007790999952703714 0.07737000286579132 0  0.008155000396072865 0.07817699760198593 0  -0.007519999984651804 0.01724000088870525 0  -0.006692999973893166 0.01746900007128716 0  -0.008399000391364098 0.01710899919271469 0  -0.009317000396549702 0.01697199977934361 0  -0.01303000003099442 0.01686999946832657 0  -0.01329299993813038 0.01795000024139881 0  -0.01390499994158745 0.01705300062894821 0  -0.01245899964123964 0.01777300052344799 0  -0.0124930003657937 0.01879899948835373 0  -0.01162400003522635 0.01795599982142448 0  -0.01203799992799759 0.0217250008136034 0  -0.01252300012856722 0.02076799981296062 0  -0.01157000008970499 0.02081800065934658 0  -0.01109000016003847 0.01996500045061111 0  -0.01053399965167046 0.02081100083887577 0  -0.01205400004982948 0.01981800049543381 0  -0.0130000002682209 0.02173200063407421 0  -0.01444599963724613 0.02094700001180172 0  -0.0149339996278286 0.0219080001115799 0  -0.01396699994802475 0.021807000041008 0  -0.00902200024574995 0.01982999965548515 0  -0.01096499990671873 0.03071299940347672 0  -0.01147300004959106 0.02984200045466423 0  -0.01046600006520748 0.02979700081050396 0  -0.005398000124841928 0.02953499928116798 0  -0.005903000012040138 0.0304579995572567 0  -0.006409999914467335 0.02958899922668934 0  -0.008042999543249607 0.01990900002419949 0  -0.005518999882042408 0.01939300075173378 0  -0.006510999985039234 0.01921799965202808 0  -0.005721000023186207 0.01854700036346912 0  -0.005799000151455402 0.01771599985659122 0  -0.004809999838471413 0.01799000054597855 0  0.04050000011920929 0.0869939997792244 0  0.04132800176739693 0.0864420011639595 0  0.04095799848437309 0.08762200176715851 0  0.03999700024724007 0.08781500160694122 0  0.01596600003540516 0.05871399864554405 0  0.01696600019931793 0.05858200043439865 0  0.01650599949061871 0.05948000028729439 0  0.02915599942207336 0.04343700036406517 0  0.02961700037121773 0.0423859991133213 0  0.03006500005722046 0.04308100044727325 0  0.03113899938762188 0.0474499985575676 0  0.03201600164175034 0.04674699902534485 0  0.03232700005173683 0.04745300114154816 0  0.03083200007677078 0.05080899968743324 0  0.02993299998342991 0.05094299837946892 0  0.03045599907636642 0.05000599846243858 0  0.03005699999630451 0.04923399910330772 0  0.03101900033652782 0.04907099902629852 0  0.02952099964022636 0.05015800148248672 0  0.02900700084865093 0.05108299851417542 0  0.02907899953424931 0.04941200092434883 0  0.02857499942183495 0.04868699982762337 0  0.02809399925172329 0.04957399889826775 0  0.02757400088012218 0.04883399978280067 0  0.03795700147747993 0.08934000134468079 0  0.03700499981641769 0.08941700309514999 0  0.03760800138115883 0.0886320024728775 0  0.03667899966239929 0.0886790007352829 0  0.008026000112295151 0.02466499991714954 0  0.008754000067710876 0.02512199990451336 0  0.008030000142753124 0.02573099918663502 0  0.008824000135064125 0.02608300000429153 0  0.02710199914872646 0.04972200095653534 0  0.02319600060582161 0.0519150011241436 0  0.02273100055754185 0.05280999839305878 0  0.02219800092279911 0.05204499885439873 0  0.02371999993920326 0.05267899855971336 0  0.02944499999284744 0.05186299979686737 0  0.01859099976718426 0.03541800007224083 0  0.01772600039839745 0.03530199825763702 0  0.01813500002026558 0.03440700098872185 0  0.01323099993169308 0.04075799882411957 0  0.01231699995696545 0.040778998285532 0  0.01277100015431643 0.0398860014975071 0  0.01185499969869852 0.03990799933671951 0  0.01140199974179268 0.04080000147223473 0  0.01139300037175417 0.03903499990701675 0  0.01231000013649464 0.03901499882340431 0  0.01277799997478724 0.04165200144052505 0  -0.02852199971675873 0.06995300203561783 0  -0.02740699984133244 0.07038100063800812 0  -0.02844199910759926 0.07075200229883194 0  -0.02667699940502644 0.06971800327301025 0  -0.02631600014865398 0.07057099789381027 0  -0.02525999955832958 0.07076100260019302 0  -0.02578599937260151 0.07147800177335739 0  -0.02463299967348576 0.07006300240755081 0  -0.02422299981117249 0.070933997631073 0  -0.02479000017046928 0.0716480016708374 0  -0.0286410003900528 0.06817899644374847 0  -0.01965999975800514 0.08315499871969223 0  -0.02066300064325333 0.08301900327205658 0  -0.01946300081908703 0.09163700044155121 0  -0.02039100043475628 0.09156700223684311 0  -0.01977800019085407 0.0908690020442009 0  -0.02070299908518791 0.09080299735069275 0  -0.02009500004351139 0.09009499847888947 0  -0.01871499978005886 0.09405700117349625 0  -0.0178420003503561 0.09413699805736542 0  -0.01766300015151501 0.09487300366163254 0  -0.01462600007653236 0.0861240029335022 0  -0.01193999964743853 0.08027300238609314 0  -0.01093299966305494 0.0804160013794899 0  -0.01148100011050701 0.08112999796867371 0  -0.01106599997729063 0.08197099715471268 0  -0.01049999985843897 0.08126399666070938 0  -0.01598300039768219 0.07804100215435028 0  -0.01648600026965141 0.07713399827480316 0  -0.01546999998390675 0.07729099690914154 0  -0.01445300038903952 0.07744699716567993 0  -0.01494599971920252 0.07654300332069397 0  -0.01905700005590916 0.08085999637842178 0  -0.01854000054299831 0.08012200146913528 0  -0.01955899968743324 0.07997000217437744 0  -0.02058099955320358 0.07981999963521957 0  -0.02538499981164932 0.07236800342798233 0  -0.02599599957466125 0.07475099712610245 0  -0.02557099983096123 0.07563599944114685 0  -0.02276900038123131 0.02429299987852573 0  -0.02307000011205673 0.02490000054240227 0  -0.02326799929141998 0.02549199946224689 0  -0.02348100021481514 0.02612899988889694 0  -0.02259000018239021 0.02613000012934208 0  -0.01967599987983704 0.02387800067663193 0  -0.01874200068414211 0.0239230003207922 0  -0.02061299979686737 0.02380299940705299 0  -0.02215499989688396 0.02305500023066998 0  -0.01737499982118607 0.01823000051081181 0  -0.01699800044298172 0.01899500004947186 0  -0.01814999990165234 0.01860000006854534 0  -0.01657900027930737 0.01785000041127205 0  -0.0182460006326437 0.02305700071156025 0  -0.0163940005
[...]
<PointData  Vectors="velocity"> 
<DataArray  type="Float64"  Name="velocity"  NumberOfComponents="3" format="ascii">1.6749999485909939e-03 2.1800000686198473e-03 0.0000000000000000e+00  1.9480000482872128e-03 2.3839999921619892e-03 0.0000000000000000e+00  -5.2889999933540821e-03 7.5599999399855733e-04 0.0000000000000000e+00  -7.4120000936090946e-03 2.6140001136809587e-03 0.0000000000000000e+00  -3.7279999814927578e-03 4.9499998567625880e-04 0.0000000000000000e+00  4.1809999383985996e-03 4.5869997702538967e-03 0.0000000000000000e+00  4.0250001475214958e-03 4.3919999152421951e-03 0.0000000000000000e+00  6.6349999979138374e-03 6.6410000436007977e-03 0.0000000000000000e+00  4.6230000443756580e-03 4.8389998264610767e-03 0.0000000000000000e+00  6.2299999408423901e-03 6.4210002310574055e-03 0.0000000000000000e+00  2.0510000176727772e-03 -1.9799999427050352e-03 0.0000000000000000e+00  8.5999997099861503e-04 -2.1939999423921108e-03 0.0000000000000000e+00  1.7140000127255917e-03 -1.5249999705702066e-03 0.0000000000000000e+00  6.1200000345706940e-04 -1.6299999551847577e-03 0.0000000000000000e+00  -3.0970000661909580e-03 -1.9771000370383263e-02 0.0000000000000000e+00  1.2044000439345837e-02 7.4305996298789978e-02 0.0000000000000000e+00  1.1339000426232815e-02 7.4541002511978149e-02 0.0000000000000000e+00  1.2720000231638551e-03 -2.3336999118328094e-02 0.0000000000000000e+00  -1.4740000478923321e-03 -1.9971000030636787e-02 0.0000000000000000e+00  -1.8400000408291817e-04 -1.9022999331355095e-02 0.0000000000000000e+00  3.7779998965561390e-03 7.5551003217697144e-02 0.0000000000000000e+00  -6.1377998441457748e-02 -4.2160000652074814e-02 0.0000000000000000e+00  -5.5084001272916794e-02 -3.7429001182317734e-02 0.0000000000000000e+00  -6.1540998518466949e-02 -4.6140998601913452e-02 0.0000000000000000e+00  -1.8890999257564545e-02 -3.5723999142646790e-02 0.0000000000000000e+00  -2.3491000756621361e-02 -4.1129998862743378e-02 0.0000000000000000e+00  -2.2561000660061836e-02 -3.4476999193429947e-02 0.0000000000000000e+00  -1.9672000780701637e-02 -4.2275000363588333e-02 0.0000000000000000e+00  3.6989999935030937e-03 3.7789999041706324e-03 0.0000000000000000e+00  6.0279997996985912e-03 5.8269998989999294e-03 0.0000000000000000e+00  5.7979999110102654e-03 5.5069997906684875e-03 0.0000000000000000e+00  4.8770001158118248e-03 4.6299998648464680e-03 0.0000000000000000e+00  2.7209999971091747e-03 2.8399999719113111e-03 0.0000000000000000e+00  8.6770001798868179e-03 7.8030000440776348e-03 0.0000000000000000e+00  8.3149997517466545e-03 7.6979999430477619e-03 0.0000000000000000e+00  1.0693999938666821e-02 9.4750002026557922e-03 0.0000000000000000e+00  1.1324999853968620e-02 9.7209997475147247e-03 0.0000000000000000e+00  3.2699999865144491e-03 3.4660000819712877e-03 0.0000000000000000e+00  -1.3922000303864479e-02 9.3740001320838928e-03 0.0000000000000000e+00  -1.1332999914884567e-02 6.0439999215304852e-03 0.0000000000000000e+00  -9.4290003180503845e-03 4.3779998086392879e-03 0.0000000000000000e+00  2.5229998864233494e-03 2.8429999947547913e-03 0.0000000000000000e+00  2.0349998958408833e-03 2.4419999681413174e-03 0.0000000000000000e+00  8.1169996410608292e-03 7.8769996762275696e-03 0.0000000000000000e+00  5.3799999877810478e-03 5.9039997868239880e-03 0.0000000000000000e+00  6.0749999247491360e-03 6.3519999384880066e-03 0.0000000000000000e+00  7.4889999814331532e-03 7.5329998508095741e-03 0.0000000000000000e+00  6.7549999803304672e-03 6.9380002096295357e-03 0.0000000000000000e+00  1.0379999876022339e-02 9.5990002155303955e-03 0.0000000000000000e+00  5.0255000591278076e-02 1.3061200082302094e-01 0.0000000000000000e+00  4.5017000287771225e-02 1.2930500507354736e-01 0.0000000000000000e+00  2.6885999366641045e-02 4.5366998761892319e-02 0.0000000000000000e+00  2.3406000807881355e-02 1.1114399880170822e-01 0.0000000000000000e+00  1.9804999232292175e-02 1.0474199801683426e-01 0.0000000000000000e+00  1.0858999565243721e-02 1.0713700205087662e-01 0.0000000000000000e+00  -1.1599899828433990e-01 5.3284998983144760e-02 0.0000000000000000e+00  -1.2261699885129929e-01 6.1508998274803162e-02 0.0000000000000000e+00  -1.1625900119543076e-01 5.7567998766899109e-02 0.0000000000000000e+00  -1.1423400044441223e-01 4.9687001854181290e-02 0.0000000000000000e+00  -1.2477199733257294e-01 5.8949999511241913e-02 0.0000000000000000e+00  -4.4323001056909561e-02 -1.8662000074982643e-02 0.0000000000000000e+00  -4.9690000712871552e-02 -2.3250000551342964e-02 0.0000000000000000e+00  -4.4587999582290649e-02 -1.5111999586224556e-02 0.0000000000000000e+00  -5.0145000219345093e-02 -1.9464999437332153e-02 0.0000000000000000e+00  7.8469999134540558e-03 2.1329000592231750e-02 0.0000000000000000e+00  6.7810001783072948e-03 1.9540000706911087e-02 0.0000000000000000e+00  3.4229999873787165e-03 1.9644999876618385e-02 0.0000000000000000e+00  4.8881001770496368e-02 5.9912998229265213e-02 0.0000000000000000e+00  1.6124999150633812e-02 3.4359000623226166e-02 0.0000000000000000e+00  5.2416000515222549e-02 5.0282999873161316e-02 0.0000000000000000e+00  5.1876999437808990e-02 5.1628999412059784e-02 0.0000000000000000e+00  -3.0648000538349152e-02 -4.3330001644790173e-03 0.0000000000000000e+00  -3.5115998238325119e-02 -8.6270002648234367e-03 0.0000000000000000e+00  -2.6319000869989395e-02 -9.5800001872703433e-04 0.0000000000000000e+00  -2.5993000715970993e-02 2.1300000662449747e-04 0.0000000000000000e+00  -3.5177998244762421e-02 -7.6859998516738415e-03 0.0000000000000000e+00  -3.0633000656962395e-02 -3.3219999168068171e-03 0.0000000000000000e+00  -6.2970002181828022e-03 1.8934000283479691e-02 0.0000000000000000e+00  2.4079999420791864e-03 2.2824000567197800e-02 0.0000000000000000e+00  -2.8129999991506338e-03 2.0044000819325447e-02 0.0000000000000000e+00  -1.4038000255823135e-02 9.7380001097917557e-03 0.0000000000000000e+00  -1.0098000057041645e-02 1.2923999689519405e-02 0.0000000000000000e+00  -1.6969999298453331e-02 7.0699998177587986e-03 0.0000000000000000e+00  -1.1932100355625153e-01 2.4317000061273575e-02 0.0000000000000000e+00  -1.1693000048398972e-01 3.5750001668930054e-02 0.0000000000000000e+00  -1.2701299786567688e-01 2.6442000642418861e-02 0.0000000000000000e+00  -1.3365999795496464e-02 5.4795000702142715e-02 0.0000000000000000e+00  1.4530000044032931e-03 6.3469998538494110e-02 0.0000000000000000e+00  -8.4159998223185539e-03 6.8983003497123718e-02 0.0000000000000000e+00  3.7779998965561390e-03 3.0219999607652426e-03 0.0000000000000000e+00  3.5470000002533197e-03 3.0219999607652426e-03 0.0000000000000000e+00  3.7779998965561390e-03 3.0219999607652426e-03 0.0000000000000000e+00  3.7779998965561390e-03 3.0219999607652426e-03 0.0000000000000000e+00  3.7779998965561390e-03 1.5109999803826213e-03 0.0000000000000000e+00  -1.6999999934341758e-04 5.3299998398870230e-04 0.0000000000000000e+00  3.5300001036375761e-03 1.2639999622479081e-03 0.0000000000000000e+00  -2.1399999968707561e-04 1.7299999308306724e-04 0.0000000000000000e+00  4.5500000123865902e-04 9.3799998285248876e-04 0.0000000000000000e+00  -1.5599999460391700e-04 -1.8000000272877514e-04 0.0000000000000000e+00  8.8120000436902046e-03 4.8600002191960812e-03 0.0000000000000000e+00  5.3509999997913837e-03 3.8739999290555716e-03 0.0000000000000000e+00  5.4069999605417252e-03 2.7030000928789377e-03 0.0000000000000000e+00  2.4109999649226665e-03 7.0199999026954174e-04 0.0000000000000000e+00  4.9950000829994678e-03 1.2430000351741910e-03 0.0000000000000000e+00  2.3590000346302986e-03 1.7780000343918800e-03 0.0000000000000000e+00  8.8740000501275063e-03 6.1820000410079956e-03 0.0000000000000000e+00  5.9500001370906830e-03 5.9239999391138554e-03 0.0000000000000000e+00  8.7799998000264168e-03 7.9300003126263618e-03 0.0000000000000000e+00  9.0030003339052200e-03 7.3299999348819256e-03 0.0000000000000000e+00  1.7849999712780118e-03 -1.4870000304654241e-03 0.0000000000000000e+00  5.2221000194549561e-02 2.0207999274134636e-02 0.0000000000000000e+00  4.8833001405000687e-02 1.9387999549508095e-02 0.0000000000000000e+00  5.1736999303102493e-02 2.0210999995470047e-02 0.0000000000000000e+00  5.5298000574111938e-02 1.9311999902129173e-02 0.0000000000000000e+00  6.1117999255657196e-02 2.2016000002622604e-02 0.0000000000000000e+00  5.5815998464822769e-02 1.9966000691056252e-02 0.0000000000000000e+00  1.7440000083297491e-03 -1.9170000450685620e-03 0.0000000000000000e+00  2.3200000578071922e-04 -2.7290000580251217e-03 0.0000000000000000e+00  7.2599999839439988e-04 -2.5740000419318676e-03 0.0000000000000000e+00  1.3600000238511711e-04 -2.8240000829100609e-03 0.0000000000000000e+00  3.2979999668896198e-03 3.0219999607652426e-03 0.0000000000000000e+00  3.0219999607652426e-03 3.0219999607652426e-03 0.0000000000000000e+00  5.9317998588085175e-02 1.1194100230932236e-01 0.0000000000000000e+00  6.0881998389959335e-02 1.0605599731206894e-01 0.0000000000000000e+00  5.6441999971866608e-02 1.0651999711990356e-01 0.0000000000000000e+00  5.5436998605728149e-02 1.1392500251531601e-01 0.0000000000000000e+00  8.4958001971244812e-02 9.1746002435684204e-02 0.0000000000000000e+00  8.4458000957965851e-02 9.8981000483036041e-02 0.0000000000000000e+00  8.2811996340751648e-02 9.6762999892234802e-02 0.0000000000000000e+00  1.5417000278830528e-02 1.7573999240994453e-02 0.0000000000000000e+00  2.0399000495672226e-02 2.1508999168872833e-02 0.0000000000000000e+00  2.0399000495672226e-02 2.2491000592708588e-02 0.0000000000000000e+00  1.6117999330163002e-02 3.0579999089241028e-02 0.0000000000000000e+00  2.0399000495672226e-02 2.5460999459028244e-02 0.0000000000000000e+00  2.0399000495672226e-02 2.5933999568223953e-02 0.0000000000000000e+00  2.8534000739455223e-02 5.4692000150680542e-02 0.0000000000000000e+00  3.5068999975919724e-02 6.2500998377799988e-02 0.0000000000000000e+00  2.8689999133348465e-02 5.1832001656293869e-02 0.0000000000000000e+00  2.8953999280929565e-02 4.9290999770164490e-02 0.0000000000000000e+00  2.1950000897049904e-02 4.1363999247550964e-02 0.0000000000000000e+00  3.5652998834848404e-02 5.9865999966859818e-02 0.0000000000000000e+00  4.2043998837471008e-02 7.0646002888679504e-02 0.0000000000000000e+00  3.6414001137018204e-02 5.7661000639200211e-02 0.0000000000000000e+00  3.7746001034975052e-02 5.5902998894453049e-02 0.0000000000000000e+00  4.4114999473094940e-02 6.6151000559329987e-02 0.0000000000000000e+00  4.6165000647306442e-02 6.3975997269153595e-02 0.0000000000000000e+00  4.0858998894691467e-02 1.2217400223016739e-01 0.0000000000000000e+00  3.7783000618219376e-02 1.2762799859046936e-01 0.0000000000000000e+00  4.7049999237060547e-02 1.2818999588489532e-01 0.0000000000000000e+00  4.4897999614477158e-02 1.3356199860572815e-01 0.0000000000000000e+00  8.0239996314048767e-03 1.5109999803826213e-03 0.0000000000000000e+00  8.5279997438192368e-03 1.5109999803826213e-03 0.0000000000000000e+00  4.9209999851882458e-03 3.6689999978989363e-03 0.0000000000000000e+00  5.1259999163448811e-03 3.9599998854100704e-03 0.0000000000000000e+00  5.1917001605033875e-02 7.4075996875762939e-02 0.0000000000000000e+00  7.9645998775959015e-02 1.0633599758148193e-01 0.0000000000000000e+00  8.1756003201007843e-02 1.1044099926948547e-01 0.0000000000000000e+00  8.3770997822284698e-02 1.0808499902486801e-01 0.0000000000000000e+00  7.7770002186298370e-02 1.0867699980735779e-01 0.0000000000000000e+00  4.0979001671075821e-02 7.3114998638629913e-02 0.0000000000000000e+00  2.6327000930905342e-02 1.7434999346733093e-02 0.0000000000000000e+00  2.9548000544309616e-02 1.9595999270677567e-02 0.0000000000000000e+00  2.0638000220060349e-02 1.4248999767005444e-02 0.0000000000000000e+00  1.0391099750995636e-01 5.5463999509811401e-02 0.0000000000000000e+00  1.0765899717807770e-01 5.4423000663518906e-02 0.0000000000000000e+00  9.9124997854232788e-02 5.1511000841856003e-02 0.0000000000000000e+00  1.0280700027942657e-01 5.0857998430728912e-02 0.0000000000000000e+00  1.1099500209093094e-01 5.3360998630523682e-02 0.0000000000000000e+00  9.7606003284454346e-02 4.7290001064538956e-02 0.0000000000000000e+00  9.3751996755599976e-02 4.7648999840021133e-02 0.0000000000000000e+00  1.1098799854516983e-01 5.8325000107288361e-02 0.0000000000000000e+00  4.8000002279877663e-03 7.5551003217697144e-02 0.0000000000000000e+00  -2.3040000814944506e-03 -2.1026000380516052e-02 0.0000000000000000e+00  5.7359999045729637e-03 7.5551003217697144e-02 0.0000000000000000e+00  6.5200001699849963e-04 -2.4710999801754951e-02 0.0000000000000000e+00  -6.9700001040473580e-04 -2.6746999472379684e-02 0.0000000000000000e+00  6.0299999313428998e-04 -3.2804001122713089e-02 0.0000000000000000e+00  -1.9299999985378236e-04 -2.8665000572800636e-02 0.0000000000000000e+00  3.5769999958574772e-03 -3.7147998809814453e-02 0.0000000000000000e+00  1.6520000062882900e-03 -3.9599999785423279e-02 0.0000000000000000e+00  3.3899999107234180e-04 -3.4958001226186752e-02 0.0000000000000000e+00  2.4590000975877047e-03 7.5286999344825745e-02 0.0000000000000000e+00  -2.5885000824928284e-02 -3.2634001225233078e-02 0.0000000000000000e+00  -2.1098999306559563e-02 -2.8201000764966011e-02 0.0000000000000000e+00  -3.7199999205768108e-03 9.9569996818900108e-03 0.0000000000000000e+00  -6.7899998975917697e-04 1.0126999579370022e-02 0.0000000000000000e+00  -3.7839999422430992e-03 7.5400001369416714e-03 0.0000000000000000e+00  -5.2200001664459705e-04 8.0930003896355629e-03 0.0000000000000000e+00  -5.2419998683035374e-03 4.8369998112320900e-03 0.0000000000000000e+00  3.2870001159608364e-03 1.7789000645279884e-02 0.0000000000000000e+00  4.1099998634308577e-04 1.7487000674009323e-02 0.0000000000000000e+00  2.1600000036414713e-04 1.9545000046491623e-02 0.0000000000000000e+00  -5.4930001497268677e-02 -4.1544999927282333e-02 0.0000000000000000e+00  -6.2638998031616211e-02 -9.7502999007701874e-02 0.0000000000000000e+00  -6.9163002073764801e-02 -1.0131099820137024e-01 0.0000000000000000e+00  -7.0353999733924866e-02 -9.4580002129077911e-02 0.0000000000000000e+00  -7.5905002653598785e-02 -9.1046996414661407e-02 0.0000000000000000e+00  -7.6572000980377197e-02 -9.7723998129367828e-02 0.0000000000000000e+00  -3.1406000256538391e-02 -8.5081003606319427e-02 0.0000000000000000e+00  -2.7230000123381615e-02 -8.5856996476650238e-02 0.0000000000000000e+00  -3.2398000359535217e-02 -9.2690996825695038e-02 0.0000000000000000e+00  -3.7726998329162598e-02 -9.9122002720832825e-02 0.0000000000000000e+00  -2.9192000627517700e-02 -9.9228002130985260e-02 0.0000000000000000e+00  -2.4322999641299248e-02 -4.8128001391887665e-02 0.0000000000000000e+00  -2.5614000856876373e-02 -5.5574998259544373e-02 0.0000000000000000e+00  -2.0843999460339546e-02 -4.9253001809120178e-02 0.0000000000000000e+00  -1.6318999230861664e-02 -4.2876999825239182e-02 0.0000000000000000e+00  4.6300000394694507e-04 -2.9843999072909355e-02 0.0000000000000000e+00  -3.2220000866800547e-03 -2.3964000865817070e-02 0.0000000000000000e+00  -2.7069998905062675e-03 -2.4422999471426010e-02 0.0000000000000000e+00  -1.5293999575078487e-02 1.1137000285089016e-02 0.0000000000000000e+00  -1.6620999202132225e-02 1.2844000011682510e-02 0.0000000000000000e+00  -1.7853999510407448e-02 1.4779999852180481e-02 0.0000000000000000e+00  -1.9181000068783760e-02 1.6866000369191170e-02 0.0000000000000000e+00  2.8750000055879354e-03 2.9190001077950001e-03 0.0000000000000000e+00  7.5659998692572117e-03 7.2619998827576637e-03 0.0000000000000000e+00  9.6869999542832375e-03 8.9159999042749405e-03 0.0000000000000000e+00  5.3590000607073307e-03 5.3770001977682114e-03 0.0000000000000000e+00  -1.2589000165462494e-02 7.6589998789131641e-03 0.0000000000000000e+00  4.4000000343658030e-04 2.3900000087451190e-04 0.0000000000000000e+00  1.1830000439658761e-03 1.8029999919235706e-03 0.0000000000000000e+00  -7.5599999399855733e-04 0.0000000000000000e+00 0.0000000000000000e+00  1.6659999964758754e-03 4.8399998922832310e-04 0.0000000000000000e+00  8.6589995771646500e-03 8.3140004426240921e-03 0.0000000000000000e+00  1.0874999687075615e-02 9.7270002588629723e-03 0.0000000000000000e+00  1.5126000158488750e-02 1.1903000064194202e-02 0.0000000000000000e+00  1.3563999906182289e-02 1.1381999589502811e-02 0.0000000000000000e+00  4.8027001321315765e-02 1.8664000555872917e-02 0.0000000000000000e+00  4.9497000873088837e-02 1.8569000065326691e-02 0.0000000000000000e+00  4.4334001839160919e-02 1.6380000859498978e-02 0.0000000000000000e+00  8.7339999154210091e-03 3.5000001080334187e-03 0.0000000000000000e+00  1.7512999475002289e-02 6.1710001900792122e-03 0.0000000000000000e+00  2.2538000717759132e-02 7.8059998340904713e-03 0.0000000000000000e+00  2.2709000855684280e-02 8.8349999859929085e-03 0.0000000000000000e+00  1.6883999109268188e-02 5.0750002264976501e-03 0.0000000000000000e+00  1.2345000170171261e-02 3.5270000807940960e-03 0.0000000000000000e+00  2.7760000899434090e-02 9.5589999109506607e-03 0.0000000000000000e+00  3.3270001411437988e-02 1.1481000110507011e-02 0.0000000000000000e+00  3.3771000802516937e-02 1.2399000115692616e-02 0.0000000000000000e+00  4.5223999768495560e-02 1.0124400258064270e-01 0.0000000000000000e+00  3.8509000092744827e-02 9.3355998396873474e-02 0.0000000000000000e+00  3.3757999539375305e-02 9.7847998142242432e-02 0.0000000000000000e+00  6.2396001070737839e-02 1.3734599947929382e-01 0.0000000000000000e+00  5.8626998215913773e-02 1.3227200508117676e-01 0.0000000000000000e+00  5.7882998138666153e-02 1.3863499462604523e-01 0.0000000000000000e+00  6.7117996513843536e-02 1.6550900042057037e-01 0.0000000000000000e+00  6.6261000931262970e-02 1.6911700367927551e-01 0.0000000000000000e+00  6.6166996955871582e-02 1.6796499490737915e-01 0.0000000000000000e+00  2.5686999782919884e-02 4.6085998415946960e-02 0.0000000000000000e+00  -8.3450004458427429e-03 1.0892499983310699e-01 0.0000000000000000e+00  -1.8734000623226166e-02 1.0834799706935883e-01 0.0000000000000000e+00  -4.1860002093017101e-03 1.1589600145816803e-01 0.0000000000000000e+00  7.2980001568794250e-03 1.1591500043869019e-01 0.0000000000000000e+00  -1.7500000540167093e-03 1.0872899740934372e-01 0.0000000000000000e+00  4.4040000066161156e-03 1.0806299746036530e-01 0.0000000000000000e+00  4.2622998356819153e-02 1.3842000067234039e-01 0.0000000000000000e+00  5.1169000566005707e-02 1.3884200155735016e-01 0.0000000000000000e+00  4.9182999879121780e-02 1.4364899694919586e-01 0.0000000000000000e+00  5.6182999163866043e-02 1.4378899335861206e-01 0.0000000000000000e+00  3.3339999616146088e-02 1.1577700078487396e-01 0.0000000000000000e+00  1.8652999773621559e-02 1.1463999748229980e-01 0.0000000000000000e+00  2.0494999364018440e-02 1.2008500099182129e-01 0.0000000000000000e+00  1.3915999792516232e-02 1.2275300174951553e-01 0.0000000000000000e+00  1.2183999642729759e-02 1.2769700586795807e-01 0.0000000000000000e+00  2.3593999445438385e-02 1.3064700365066528e-01 0.0000000000000000e+00  3.1185999512672424e-02 1.2088800221681595e-01 0.0000000000000000e+00  -1.0545200109481812e-01 4.3104998767375946e-02 0.0000000000000000e+00  -9.8096996545791626e-02 4.0267001837491989e-02 0.0000000000000000e+00  -1.1603900045156479e-01 4.6695999801158905e-02 0.0000000000000000e+00  -1.2910799682140350e-01 6.0059998184442520e-02 0.0000000000000000e+00  -1.2129399925470352e-01 5.3477000445127487e-02 0.0000000000000000e+00  -1.2407100200653076e-01 5.3502999246120453e-02 0.0000000000000000e+00  -1.1040399968624115e-01 4.6193998306989670e-02 0.0000000000000000e+00  -3.5023998469114304e-02 -9.5800003036856651e-03 0.0000000000000000e+00  -3.0153000727295876e-02 -1.9300000276416540e-03 0.0000000000000000e+00  -3.0548000708222389e-02 -4.9479999579489231e-03 0.0000000000000000e+00  -3.9593998342752457e-02 -1.3178000226616859e-02 0.0000000000000000e+00  -5.2521999925374985e-02 -2.7227999642491341e-02 0.0000000000000000e+00  -7.6151996850967407e-02 -3.1456999480724335e-02 0.0000000000000000e+00  -7.7812001109123230e-02 -3.7195000797510147e-02 0.0000000000000000e+00  -8.6672000586986542e-02 -3.8072999566793442e-02 0.0000000000000000e+00  -4.2311001569032669e-02 -1.1277000419795513e-02 0.00