<?xml version="1.0"?>
<VTKFile type="UnstructuredGrid"  version="0.1"  >
<UnstructuredGrid>
<Piece  NumberOfPoints="6340" NumberOfCells="12376">
<Points>
<DataArray  type="Float64"  NumberOfComponents="3"  format="ascii">-0.01910299994051456 0.02064500004053116 0  -0.01968700066208839 0.02124300040304661 0  -0.01992999948561192 0.02027999982237816 0  -0.02037999965250492 0.02092999964952469 0  -0.0193450003862381 0.0197330005466938 0  -0.01892800070345402 0.02151099964976311 0  -0.01934099942445755 0.02219199948012829 0  -0.01889600045979023 0.02301999926567078 0  -0.01971700042486191 0.02285300008952618 0  -0.01848899945616722 0.02224300056695938 0  -0.008975000120699406 0.01765000075101852 0  -0.009577999822795391 0.01856300048530102 0  -0.00991200003772974 0.01762600056827068 0  -0.01052100025117397 0.01858000084757805 0  -0.02405999973416328 0.0703200027346611 0  -0.02495500072836876 0.07055599987506866 0  -0.02509200014173985 0.06980299949645996 0  -0.0242260005325079 0.06415600329637527 0  -0.02486299909651279 0.06472399830818176 0  -0.02499599941074848 0.06385699659585953 0  -0.02572000026702881 0.06413999944925308 0  -0.01206499990075827 0.08278000354766846 0  -0.01289399992674589 0.08254200220108032 0  -0.01232600025832653 0.08204399794340134 0  -0.01856300048530102 0.07671699672937393 0  -0.01763599924743176 0.07701399922370911 0  -0.01813199929893017 0.07756099849939346 0  -0.01807199977338314 0.07616200298070908 0  -0.02112000063061714 0.02399300038814545 0  -0.02036100067198277 0.02424499951303005 0  -0.02064899913966656 0.02489300072193146 0  -0.02089999988675117 0.02555599994957447 0  -0.02142100036144257 0.02464799955487251 0  -0.01988199912011623 0.0251499991863966 0  -0.01957600004971027 0.02442700043320656 0  -0.01877900026738644 0.02458800002932549 0  -0.01909900084137917 0.02531599998474121 0  -0.02082899957895279 0.02332800067961216 0  -0.02165599912405014 0.02310900017619133 0  -0.02120999991893768 0.02212999947369099 0  -0.02080699987709522 0.02154700085520744 0  -0.02051400020718575 0.02260600030422211 0  -0.0200980007648468 0.0219310000538826 0  -0.01611699908971786 0.02203099988400936 0  -0.01660799980163574 0.02115100063383579 0  -0.01571200042963028 0.02114200033247471 0  -0.01694300025701523 0.0221330001950264 0  -0.01775900088250637 0.02209600061178207 0  -0.01729300059378147 0.02298299968242645 0  0.03985200077295303 0.07617799937725067 0  0.03963100165128708 0.07529699802398682 0  0.0408409982919693 0.07536300271749496 0  0.04144300147891045 0.08642499893903732 0  0.04216299951076508 0.08664099872112274 0  0.04108799993991852 0.08709000051021576 0  0.0237830001860857 0.09430299699306488 0  0.02401000075042248 0.09361899644136429 0  0.02484199963510036 0.09386199712753296 0  0.02281099930405617 0.09470800310373306 0  0.02304299920797348 0.0938820019364357 0  -0.007927999831736088 0.09066499769687653 0  -0.007131000049412251 0.09096799790859222 0  -0.007739999797195196 0.09144499897956848 0  -0.006930000148713589 0.0917539969086647 0  -0.01779899932444096 0.08888799697160721 0  -0.01805900037288666 0.08826199918985367 0  -0.01712599955499172 0.08858799934387207 0  -0.01866599917411804 0.08881700038909912 0  -0.01542999967932701 0.09429299831390381 0  -0.01575700007379055 0.09492000192403793 0  -0.01612100005149841 0.09422200173139572 0  -0.01105200033634901 0.08895599842071533 0  -0.01030599977821112 0.08918099850416183 0  -0.01090900041162968 0.08966799825429916 0  -0.01181299984455109 0.08873800188302994 0  -0.0112100001424551 0.0882520005106926 0  -0.01197099965065718 0.08803500235080719 0  -0.01437199953943491 0.08994100242853165 0  -0.01493600010871887 0.09041000157594681 0  -0.01517200004309416 0.0897039994597435 0  -0.01317999977618456 0.08899900317192078 0  -0.01396999973803759 0.08877799659967422 0  -0.01336100045591593 0.08830100297927856 0  0.01040299981832504 0.08893600106239319 0  0.01139700040221214 0.08883699774742126 0  0.01076599955558777 0.08949799835681915 0  0.007505999878048897 0.07783699780702591 0  0.008040999993681908 0.07701700180768967 0  0.00849900022149086 0.07773800194263458 0  -0.008729999884963036 0.01672999933362007 0  -0.007966999895870686 0.01688900031149387 0  -0.00954199954867363 0.01666899956762791 0  -0.01039000041782856 0.01660599932074547 0  -0.01377999968826771 0.01678000018000603 0  -0.01396800018846989 0.01789399981498718 0  -0.01455300021916628 0.01701599918305874 0  -0.0132250003516674 0.01766199991106987 0  -0.01321600005030632 0.01871299929916859 0  -0.01245899964123964 0.01778900064527988 0  -0.01268399972468615 0.02166599966585636 0  -0.01315800007432699 0.02071899920701981 0  -0.01229900028556585 0.02071000076830387 0  -0.01189500000327826 0.01980400085449219 0  -0.01135700009763241 0.02062899991869926 0  -0.01277900021523237 0.01972400024533272 0  -0.01354200020432472 0.02172699943184853 0  -0.01486700028181076 0.02100900001823902 0  -0.01524899993091822 0.02197800017893314 0  -0.014402000233531 0.02185799926519394 0  -0.01001499965786934 0.01951099932193756 0  -0.01133500039577484 0.03075199946761131 0  -0.01182700041681528 0.02989399991929531 0  -0.01092899963259697 0.02979299984872341 0  -0.006333000026643276 0.0291569996625185 0  -0.006763000041246414 0.03014600090682507 0  -0.007259999867528677 0.029296999797225 0  -0.009112999774515629 0.01950999908149242 0  -0.006823999807238579 0.01875600032508373 0  -0.007734999991953373 0.01866799965500832 0  -0.007040000054985285 0.01790600083768368 0  -0.007143000140786171 0.01706000044941902 0  -0.00622999994084239 0.01724999956786633 0  0.04361800104379654 0.08318100124597549 0  0.04442499950528145 0.08255100250244141 0  0.04417400062084198 0.08375400304794312 0  0.043163001537323 0.08400099724531174 0  0.01448999997228384 0.05722400173544884 0  0.01548700034618378 0.05695100128650665 0  0.01510099973529577 0.05790600180625916 0  0.02648100070655346 0.04020699858665466 0  0.02685200050473213 0.03910199925303459 0  0.02737399935722351 0.03972199931740761 0  0.02892900072038174 0.0438929982483387 0  0.02976099960505962 0.04307499900460243 0  0.03015599958598614 0.04374299943447113 0  0.02896199934184551 0.04731500148773193 0  0.02805100008845329 0.04755400121212006 0  0.02849199995398521 0.04654600098729134 0  0.02799900062382221 0.04582300037145615 0  0.02897500060498714 0.04553499817848206 0  0.0275420006364584 0.04681900143623352 0  0.02710900083184242 0.04781299829483032 0  0.02700700052082539 0.04612699896097183 0  0.02641100063920021 0.0454769991338253 0  0.02600700035691261 0.04642299935221672 0  0.02539299987256527 0.04576899856328964 0  0.040973000228405 0.08530600368976593 0  0.03994200006127357 0.08541099727153778 0  0.04058400169014931 0.08475799858570099 0  0.03957799822092056 0.08483699709177017 0  0.005510999821126461 0.02280700020492077 0  0.006178000010550022 0.02323500066995621 0  0.005557000171393156 0.02390599995851517 0  0.006279999855905771 0.02422099933028221 0  0.02499900013208389 0.04671499878168106 0  0.02120600081980228 0.04945399984717369 0  0.02081700041890144 0.05040600150823593 0  0.02020099945366383 0.04972900077700615 0  0.02181700058281422 0.05013100057840347 0  0.02764100022614002 0.04854600131511688 0  0.01557799987494946 0.03338000178337097 0  0.01476499997079372 0.03331900015473366 0  0.01510099973529577 0.03237299993634224 0  0.01085499953478575 0.0391869992017746 0  0.01002399995923042 0.03924600034952164 0  0.01039799954742193 0.03830499947071075 0  0.009566999971866608 0.03836499899625778 0  0.009193000383675098 0.03930500149726868 0  0.009111000224947929 0.03748000040650368 0  0.009940999560058117 0.0374240018427372 0  0.01048099994659424 0.04012899845838547 0  -0.02566199935972691 0.06495899707078934 0  -0.02465000003576279 0.06554199755191803 0  -0.02560999989509583 0.06570799648761749 0  -0.02396100014448166 0.06505399942398071 0  -0.02365300059318542 0.06589999794960022 0  -0.0226879995316267 0.06625399738550186 0  -0.02318999916315079 0.06682500243186951 0  -0.02209299989044666 0.06571699678897858 0  -0.02174000069499016 0.06658799946308136 0  -0.02227899990975857 0.06714999675750732 0  -0.02574400044977665 0.06329499930143356 0  -0.017705999314785 0.07839299738407135 0  -0.01862500049173832 0.07810600101947784 0  -0.01774900034070015 0.08575200289487839 0  -0.01858399994671345 0.08554600179195404 0  -0.01800199970602989 0.08504600077867508 0  -0.01883300021290779 0.08484499901533127 0  -0.01825799979269505 0.08433400094509125 0  -0.01717800088226795 0.08794300258159637 0  -0.0163940005004406 0.0881510004401207 0  -0.01626699976623058 0.08881600201129913 0  -0.01316700037568808 0.08179499953985214 0  -0.01061099953949451 0.07714399695396423 0  -0.009688000194728374 0.07744099944829941 0  -0.01019500009715557 0.07797800004482269 0  -0.009820000268518925 0.07878299802541733 0  -0.009297000244259834 0.07825800031423569 0  -0.01431700028479099 0.07446199655532837 0  -0.01477599982172251 0.0735590010881424 0  -0.01384400017559528 0.07387399673461914 0  -0.01291100028902292 0.0741880014538765 0  -0.01335600018501282 0.0732870027422905 0  -0.01714199967682362 0.07646399736404419 0  -0.01666600070893764 0.07589299976825714 0  -0.01760200038552284 0.07558400183916092 0  -0.01853900030255318 0.0752749964594841 0  -0.02284399978816509 0.06770999729633331 0  -0.02345800027251244 0.06977800279855728 0  -0.02308600023388863 0.07065100222826004 0  -0.021891999989748 0.02362800016999245 0  -0.02212000079452991 0.02412999980151653 0  -0.02226400002837181 0.02460999973118305 0  -0.0224200002849102 0.02512699924409389 0  -0.02164099924266338 0.02533899992704391 0  -0.01924699917435646 0.02371600084006786 0  -0.01844299957156181 0.02386800013482571 0  -0.02005599997937679 0.02353500016033649 0  -0.0214259997010231 0.02260500006377697 0  -0.01756899990141392 0.01831299997866154 0  -0.01720100082457066 0.01907699927687645 0  -0.01823000051081181 0.01868999935686588 0  -0.01689000055193901 0.01792700029909611 0  -0.01806499995291233 0.02305000089108944 0  -0.
[...]
<PointData  Vectors="velocity"> 
<DataArray  type="Float64"  Name="velocity"  NumberOfComponents="3" format="ascii">4.5340000651776791e-03 4.1959998197853565e-03 0.0000000000000000e+00  5.0160000100731850e-03 4.6480000019073486e-03 0.0000000000000000e+00  0.0000000000000000e+00 -1.5109999803826213e-03 0.0000000000000000e+00  -5.3100002696737647e-04 -1.5109999803826213e-03 0.0000000000000000e+00  5.2000000141561031e-04 -1.2509999796748161e-03 0.0000000000000000e+00  9.2860003933310509e-03 8.1700002774596214e-03 0.0000000000000000e+00  1.1134999804198742e-02 9.7040003165602684e-03 0.0000000000000000e+00  1.7628999426960945e-02 1.4468999579548836e-02 0.0000000000000000e+00  1.2401999905705452e-02 1.0700000450015068e-02 0.0000000000000000e+00  1.5061000362038612e-02 1.2516999617218971e-02 0.0000000000000000e+00  3.6110000219196081e-03 2.3040000814944506e-03 0.0000000000000000e+00  7.9300003126263618e-03 4.4800001196563244e-03 0.0000000000000000e+00  3.9049999322742224e-03 2.3630000650882721e-03 0.0000000000000000e+00  7.5409999117255211e-03 4.3979999609291553e-03 0.0000000000000000e+00  -5.9150001034140587e-03 -3.2843999564647675e-02 0.0000000000000000e+00  -1.5866000205278397e-02 1.2440000427886844e-03 0.0000000000000000e+00  -1.5866000205278397e-02 1.0089999996125698e-03 0.0000000000000000e+00  1.6009999671950936e-03 -3.3185001462697983e-02 0.0000000000000000e+00  -1.9729998894035816e-03 -3.0032999813556671e-02 0.0000000000000000e+00  2.1600000036414713e-04 -2.8474999591708183e-02 0.0000000000000000e+00  -1.6620999202132225e-02 0.0000000000000000e+00 0.0000000000000000e+00  -3.3799000084400177e-02 -6.3725002110004425e-02 0.0000000000000000e+00  -3.2614000141620636e-02 -6.0660999268293381e-02 0.0000000000000000e+00  -3.4053001552820206e-02 -6.4061999320983887e-02 0.0000000000000000e+00  -1.8300000578165054e-02 -5.0328001379966736e-02 0.0000000000000000e+00  -2.0313000306487083e-02 -5.4049000144004822e-02 0.0000000000000000e+00  -1.9617000594735146e-02 -4.9966998398303986e-02 0.0000000000000000e+00  -1.8681000918149948e-02 -5.4393999278545380e-02 0.0000000000000000e+00  5.6289997883141041e-03 4.9569997936487198e-03 0.0000000000000000e+00  1.0618000291287899e-02 8.9189996942877769e-03 0.0000000000000000e+00  1.0649999603629112e-02 8.8379997760057449e-03 0.0000000000000000e+00  1.0297000408172607e-02 8.4300003945827484e-03 0.0000000000000000e+00  5.9529999271035194e-03 5.1770000718533993e-03 0.0000000000000000e+00  1.5685999765992165e-02 1.2405999936163425e-02 0.0000000000000000e+00  1.6613999381661415e-02 1.3315999880433083e-02 0.0000000000000000e+00  2.3667000234127045e-02 1.8075000494718552e-02 0.0000000000000000e+00  2.1293999627232552e-02 1.6070000827312469e-02 0.0000000000000000e+00  6.0700001195073128e-03 5.4210000671446323e-03 0.0000000000000000e+00  -2.2509999107569456e-03 -1.8810000037774444e-03 0.0000000000000000e+00  -1.5109999803826213e-03 -1.5109999803826213e-03 0.0000000000000000e+00  -1.0349999647587538e-03 -1.5109999803826213e-03 0.0000000000000000e+00  6.9530000910162926e-03 6.3089998438954353e-03 0.0000000000000000e+00  6.3900002278387547e-03 5.8559998869895935e-03 0.0000000000000000e+00  2.1211000159382820e-02 1.5499000437557697e-02 0.0000000000000000e+00  1.4600000344216824e-02 1.1454000137746334e-02 0.0000000000000000e+00  1.6634000465273857e-02 1.2339999899268150e-02 0.0000000000000000e+00  1.9703000783920288e-02 1.5073000453412533e-02 0.0000000000000000e+00  1.6850000247359276e-02 1.3538000173866749e-02 0.0000000000000000e+00  2.4430999532341957e-02 1.8373999744653702e-02 0.0000000000000000e+00  8.6476996541023254e-02 1.6203700006008148e-01 0.0000000000000000e+00  7.8767001628875732e-02 1.5687100589275360e-01 0.0000000000000000e+00  -2.0085999742150307e-02 1.3598999939858913e-02 0.0000000000000000e+00  1.3849799335002899e-01 2.2379699349403381e-01 0.0000000000000000e+00  1.3290999829769135e-01 2.1314500272274017e-01 0.0000000000000000e+00  1.3860200345516205e-01 2.3044000566005707e-01 0.0000000000000000e+00  -5.9320000000298023e-03 1.2140399962663651e-01 0.0000000000000000e+00  7.1959998458623886e-03 1.3307000696659088e-01 0.0000000000000000e+00  7.8459996730089188e-03 1.3885399699211121e-01 0.0000000000000000e+00  -1.8286999315023422e-02 1.0502000153064728e-01 0.0000000000000000e+00  -3.2059999648481607e-03 1.1891999840736389e-01 0.0000000000000000e+00  -3.9250999689102173e-02 -7.2117000818252563e-02 0.0000000000000000e+00  -4.1514001786708832e-02 -7.6071001589298248e-02 0.0000000000000000e+00  -3.9462000131607056e-02 -7.1010001003742218e-02 0.0000000000000000e+00  -4.1717000305652618e-02 -7.5026996433734894e-02 0.0000000000000000e+00  -1.2121000327169895e-02 -2.0216999575495720e-02 0.0000000000000000e+00  -1.1951999738812447e-02 -2.0366000011563301e-02 0.0000000000000000e+00  -1.3892999850213528e-02 -2.3599000647664070e-02 0.0000000000000000e+00  -2.5195999071002007e-02 2.4600001052021980e-04 0.0000000000000000e+00  -1.2616000138223171e-02 -1.7565000802278519e-02 0.0000000000000000e+00  -3.0505999922752380e-02 -2.2670000325888395e-03 0.0000000000000000e+00  -2.9967999085783958e-02 -2.2670000325888395e-03 0.0000000000000000e+00  -3.1067999079823494e-02 -5.6643001735210419e-02 0.0000000000000000e+00  -3.3103998750448227e-02 -6.0784999281167984e-02 0.0000000000000000e+00  -3.0787000432610512e-02 -5.5651001632213593e-02 0.0000000000000000e+00  -2.9178999364376068e-02 -5.2361998707056046e-02 0.0000000000000000e+00  -3.2692998647689819e-02 -5.7569000869989395e-02 0.0000000000000000e+00  -3.0873000621795654e-02 -5.3348999470472336e-02 0.0000000000000000e+00  -2.0150000229477882e-02 -3.3541999757289886e-02 0.0000000000000000e+00  -1.7999000847339630e-02 -2.9392000287771225e-02 0.0000000000000000e+00  -1.8100999295711517e-02 -3.0161999166011810e-02 0.0000000000000000e+00  -2.4573000147938728e-02 -4.3287001550197601e-02 0.0000000000000000e+00  -2.2461999207735062e-02 -3.9094999432563782e-02 0.0000000000000000e+00  -2.5510000064969063e-02 -4.4174998998641968e-02 0.0000000000000000e+00  -8.7799999164417386e-04 1.2369999662041664e-02 0.0000000000000000e+00  7.1180001832544804e-03 2.8271999210119247e-02 0.0000000000000000e+00  -8.4910001605749130e-03 1.2218999676406384e-02 0.0000000000000000e+00  1.2064299732446671e-01 6.1023000627756119e-02 0.0000000000000000e+00  1.2390699982643127e-01 7.0885002613067627e-02 0.0000000000000000e+00  1.2748600542545319e-01 7.1938000619411469e-02 0.0000000000000000e+00  3.7779998965561390e-03 3.0219999607652426e-03 0.0000000000000000e+00  4.2389999143779278e-03 3.2530000898987055e-03 0.0000000000000000e+00  3.5359999164938927e-03 2.7799999807029963e-03 0.0000000000000000e+00  3.2840000931173563e-03 2.5279999244958162e-03 0.0000000000000000e+00  3.0219999607652426e-03 1.5109999803826213e-03 0.0000000000000000e+00  3.2830000855028629e-03 2.5339999701827765e-03 0.0000000000000000e+00  2.7749999426305294e-03 1.0160000529140234e-03 0.0000000000000000e+00  2.7930000796914101e-03 2.0439999643713236e-03 0.0000000000000000e+00  6.8879998289048672e-03 4.8030000180006027e-03 0.0000000000000000e+00  3.5419999621808529e-03 2.4069999344646931e-03 0.0000000000000000e+00  2.3561000823974609e-02 1.3837000355124474e-02 0.0000000000000000e+00  1.6788000240921974e-02 1.0633000172674656e-02 0.0000000000000000e+00  1.7689000815153122e-02 1.0526999831199646e-02 0.0000000000000000e+00  1.2749000452458858e-02 7.6660001650452614e-03 0.0000000000000000e+00  1.7757000401616096e-02 9.9370004609227180e-03 0.0000000000000000e+00  1.1677999980747700e-02 7.5170001946389675e-03 0.0000000000000000e+00  2.3639999330043793e-02 1.4724000357091427e-02 0.0000000000000000e+00  1.7179999500513077e-02 1.2125000357627869e-02 0.0000000000000000e+00  2.2846000269055367e-02 1.5825999900698662e-02 0.0000000000000000e+00  2.3668000474572182e-02 1.5569999814033508e-02 0.0000000000000000e+00  1.2101000174880028e-02 6.5899998880922794e-03 0.0000000000000000e+00  6.7287996411323547e-02 4.7894001007080078e-02 0.0000000000000000e+00  7.0237003266811371e-02 4.4824998825788498e-02 0.0000000000000000e+00  7.5471997261047363e-02 4.9412999302148819e-02 0.0000000000000000e+00  8.3691999316215515e-02 5.5100999772548676e-02 0.0000000000000000e+00  8.4753997623920441e-02 5.9815999120473862e-02 0.0000000000000000e+00  8.5703998804092407e-02 5.7248998433351517e-02 0.0000000000000000e+00  1.2504000216722488e-02 6.5549998544156551e-03 0.0000000000000000e+00  8.6439996957778931e-03 4.5839999802410603e-03 0.0000000000000000e+00  8.6880000308156013e-03 4.6509997919201851e-03 0.0000000000000000e+00  4.2039998807013035e-03 2.6930000167340040e-03 0.0000000000000000e+00  4.7369999811053276e-03 3.5019998904317617e-03 0.0000000000000000e+00  5.2889999933540821e-03 3.7779998965561390e-03 0.0000000000000000e+00  1.1162099987268448e-01 1.6214199364185333e-01 0.0000000000000000e+00  9.9609002470970154e-02 1.4057700335979462e-01 0.0000000000000000e+00  1.0938800126314163e-01 1.5743100643157959e-01 0.0000000000000000e+00  1.2053699791431427e-01 1.7851999402046204e-01 0.0000000000000000e+00  9.9996000528335571e-02 1.2865500152111053e-01 0.0000000000000000e+00  1.0486699640750885e-01 1.3729199767112732e-01 0.0000000000000000e+00  9.0311996638774872e-02 1.3632500171661377e-01 0.0000000000000000e+00  2.5379000231623650e-02 2.6099000126123428e-02 0.0000000000000000e+00  2.0121000707149506e-02 1.6698999330401421e-02 0.0000000000000000e+00  1.9875999540090561e-02 1.7434999346733093e-02 0.0000000000000000e+00  3.0129000544548035e-02 4.5396000146865845e-02 0.0000000000000000e+00  1.7603000625967979e-02 1.9907999783754349e-02 0.0000000000000000e+00  1.7130000516772270e-02 2.0145000889897346e-02 0.0000000000000000e+00  5.1091000437736511e-02 8.5275001823902130e-02 0.0000000000000000e+00  6.3011996448040009e-02 9.6560999751091003e-02 0.0000000000000000e+00  5.2280001342296600e-02 7.9851001501083374e-02 0.0000000000000000e+00  5.3412001579999924e-02 7.5106002390384674e-02 0.0000000000000000e+00  4.0525000542402267e-02 6.3341997563838959e-02 0.0000000000000000e+00  6.5119996666908264e-02 9.1379001736640930e-02 0.0000000000000000e+00  7.5676999986171722e-02 1.0758300125598907e-01 0.0000000000000000e+00  6.7235998809337616e-02 8.6847998201847076e-02 0.0000000000000000e+00  6.9829002022743225e-02 8.3177998661994934e-02 0.0000000000000000e+00  8.1170000135898590e-02 9.7745001316070557e-02 0.0000000000000000e+00  8.4060996770858765e-02 9.3599997460842133e-02 0.0000000000000000e+00  1.4207600057125092e-01 2.2522099316120148e-01 0.0000000000000000e+00  1.4774900674819946e-01 2.3921999335289001e-01 0.0000000000000000e+00  1.4417000114917755e-01 2.2829699516296387e-01 0.0000000000000000e+00  1.4946299791336060e-01 2.4151499569416046e-01 0.0000000000000000e+00  1.2556999921798706e-02 9.3010002747178078e-03 0.0000000000000000e+00  1.3061000034213066e-02 9.5530003309249878e-03 0.0000000000000000e+00  3.1290000770241022e-03 4.0950002148747444e-03 0.0000000000000000e+00  3.3060000278055668e-03 4.2200000025331974e-03 0.0000000000000000e+00  9.4787001609802246e-02 1.0735999792814255e-01 0.0000000000000000e+00  1.3642799854278564e-01 1.3769599795341492e-01 0.0000000000000000e+00  1.3821500539779663e-01 1.4282800257205963e-01 0.0000000000000000e+00  1.4233300089836121e-01 1.3696199655532837e-01 0.0000000000000000e+00  1.3209499418735504e-01 1.4345200359821320e-01 0.0000000000000000e+00  7.2198003530502319e-02 1.1283800005912781e-01 0.0000000000000000e+00  3.2489001750946045e-02 2.3910999298095703e-02 0.0000000000000000e+00  3.6005001515150070e-02 2.6359999552369118e-02 0.0000000000000000e+00  2.3877000436186790e-02 1.9692000001668930e-02 0.0000000000000000e+00  1.4431600272655487e-01 7.2654999792575836e-02 0.0000000000000000e+00  1.4815799891948700e-01 7.1433000266551971e-02 0.0000000000000000e+00  1.3725399971008301e-01 6.8067997694015503e-02 0.0000000000000000e+00  1.4137500524520874e-01 6.7092999815940857e-02 0.0000000000000000e+00  1.5130899846553802e-01 6.9502003490924835e-02 0.0000000000000000e+00  1.3312399387359619e-01 6.2706001102924347e-02 0.0000000000000000e+00  1.2882900238037109e-01 6.3464999198913574e-02 0.0000000000000000e+00  1.5369300544261932e-01 7.5736001133918762e-02 0.0000000000000000e+00  -1.6364999115467072e-02 2.5599999935366213e-04 0.0000000000000000e+00  -2.1949999500066042e-03 -3.1397998332977295e-02 0.0000000000000000e+00  -1.6132000833749771e-02 4.9000000581145287e-04 0.0000000000000000e+00  -6.7999999737367034e-04 -3.5643000155687332e-02 0.0000000000000000e+00  -1.1050000321120024e-03 -3.7464000284671783e-02 0.0000000000000000e+00  -3.3499998971819878e-04 -4.3694999068975449e-02 0.0000000000000000e+00  -1.2169999536126852e-03 -4.0100999176502228e-02 0.0000000000000000e+00  1.3680000556632876e-03 -4.7724001109600067e-02 0.0000000000000000e+00  2.0399999630171806e-04 -4.9717999994754791e-02 0.0000000000000000e+00  -8.2700001075863838e-04 -4.5859999954700470e-02 0.0000000000000000e+00  -1.6884999349713326e-02 -2.6400000206194818e-04 0.0000000000000000e+00  -2.0937999710440636e-02 -4.9525000154972076e-02 0.0000000000000000e+00  -1.8813999369740486e-02 -4.5820999890565872e-02 0.0000000000000000e+00  -1.6163999214768410e-02 -2.7432000264525414e-02 0.0000000000000000e+00  -1.4165000058710575e-02 -2.4382999166846275e-02 0.0000000000000000e+00  -1.6028000041842461e-02 -2.8054999187588692e-02 0.0000000000000000e+00  -1.4024999924004078e-02 -2.4972999468445778e-02 0.0000000000000000e+00  -1.6070000827312469e-02 -2.8824999928474426e-02 0.0000000000000000e+00  -1.4345999807119370e-02 -2.4811999872326851e-02 0.0000000000000000e+00  -1.6131000593304634e-02 -2.7736999094486237e-02 0.0000000000000000e+00  -1.5805000439286232e-02 -2.6745000854134560e-02 0.0000000000000000e+00  -3.2878000289201736e-02 -6.1264999210834503e-02 0.0000000000000000e+00  -2.3535000160336494e-02 -7.0814996957778931e-02 0.0000000000000000e+00  -2.1925000473856926e-02 -6.9333001971244812e-02 0.0000000000000000e+00  -2.5057999417185783e-02 -7.0561997592449188e-02 0.0000000000000000e+00  -2.6269000023603439e-02 -7.0615999400615692e-02 0.0000000000000000e+00  -2.3708000779151917e-02 -6.9742001593112946e-02 0.0000000000000000e+00  -1.9937999546527863e-02 -7.1336001157760620e-02 0.0000000000000000e+00  -1.6882000491023064e-02 -7.1661002933979034e-02 0.0000000000000000e+00  -1.7746999859809875e-02 -7.2503000497817993e-02 0.0000000000000000e+00  -1.7922999337315559e-02 -7.2154998779296875e-02 0.0000000000000000e+00  -1.5007000416517258e-02 -7.2812996804714203e-02 0.0000000000000000e+00  -2.0617000758647919e-02 -5.7904999703168869e-02 0.0000000000000000e+00  -2.0533999428153038e-02 -6.1475001275539398e-02 0.0000000000000000e+00  -1.8733000382781029e-02 -5.8276001363992691e-02 0.0000000000000000e+00  -1.6726000234484673e-02 -5.4420001804828644e-02 0.0000000000000000e+00  -2.0220000296831131e-03 -4.1912999004125595e-02 0.0000000000000000e+00  -5.7350001297891140e-03 -3.6938998848199844e-02 0.0000000000000000e+00  -6.1719999648630619e-03 -3.8088999688625336e-02 0.0000000000000000e+00  -2.6430001016706228e-03 -2.0769999828189611e-03 0.0000000000000000e+00  -3.0219999607652426e-03 -2.2670000325888395e-03 0.0000000000000000e+00  -3.5500000230967999e-03 -2.2670000325888395e-03 0.0000000000000000e+00  -4.1189999319612980e-03 -2.2670000325888395e-03 0.0000000000000000e+00  5.4279998876154423e-03 4.6430001966655254e-03 0.0000000000000000e+00  1.8332000821828842e-02 1.4875999651849270e-02 0.0000000000000000e+00  2.4106999859213829e-02 1.8625000491738319e-02 0.0000000000000000e+00  1.2264000251889229e-02 1.0451000183820724e-02 0.0000000000000000e+00  -1.8700000364333391e-03 -1.6909999540075660e-03 0.0000000000000000e+00  1.7500000540167093e-03 -5.1599997095763683e-04 0.0000000000000000e+00  3.8149999454617500e-03 3.4390001092106104e-03 0.0000000000000000e+00  1.5109999803826213e-03 -7.5599999399855733e-04 0.0000000000000000e+00  1.9950000569224358e-03 -2.7099999715574086e-04 0.0000000000000000e+00  2.1764999255537987e-02 1.7054000869393349e-02 0.0000000000000000e+00  2.7161000296473503e-02 1.9455999135971069e-02 0.0000000000000000e+00  3.5668998956680298e-02 2.3947000503540039e-02 0.0000000000000000e+00  3.2579001039266586e-02 2.2972000762820244e-02 0.0000000000000000e+00  6.1886999756097794e-02 4.2750000953674316e-02 0.0000000000000000e+00  5.8005001395940781e-02 4.5180998742580414e-02 0.0000000000000000e+00  5.2489999681711197e-02 3.9645999670028687e-02 0.0000000000000000e+00  2.3809999227523804e-02 1.3195999898016453e-02 0.0000000000000000e+00  3.9698000997304916e-02 2.0123999565839767e-02 0.0000000000000000e+00  4.8172999173402786e-02 2.4513000622391701e-02 0.0000000000000000e+00  4.9483999609947205e-02 2.5239000096917152e-02 0.0000000000000000e+00  3.8088001310825348e-02 1.9237000495195389e-02 0.0000000000000000e+00  3.0765000730752945e-02 1.5567000024020672e-02 0.0000000000000000e+00  5.5994000285863876e-02 2.9509000480175018e-02 0.0000000000000000e+00  6.3700996339321136e-02 3.5401999950408936e-02 0.0000000000000000e+00  6.7587003111839294e-02 3.5982001572847366e-02 0.0000000000000000e+00  1.1509799957275391e-01 1.6945299506187439e-01 0.0000000000000000e+00  1.0706199705600739e-01 1.5446999669075012e-01 0.0000000000000000e+00  1.1683099716901779e-01 1.7468200623989105e-01 0.0000000000000000e+00  1.3930700719356537e-01 2.1969600021839142e-01 0.0000000000000000e+00  1.3883200287818909e-01 2.1606500446796417e-01 0.0000000000000000e+00  1.4692899584770203e-01 2.3338000476360321e-01 0.0000000000000000e+00  1.5729799866676331e-01 2.6139101386070251e-01 0.0000000000000000e+00  1.6230399906635284e-01 2.6735898852348328e-01 0.0000000000000000e+00  1.5573200583457947e-01 2.6084199547767639e-01 0.0000000000000000e+00  -1.8888000398874283e-02 1.3598999939858913e-02 0.0000000000000000e+00  1.4219899475574493e-01 2.5350600481033325e-01 0.0000000000000000e+00  1.4034999907016754e-01 2.5935900211334229e-01 0.0000000000000000e+00  1.4548799395561218e-01 2.5794100761413574e-01 0.0000000000000000e+00  1.4602600038051605e-01 2.5049200654029846e-01 0.0000000000000000e+00  1.4202100038528442e-01 2.4729500710964203e-01 0.0000000000000000e+00  1.4040599763393402e-01 2.3904100060462952e-01 0.0000000000000000e+00  1.5452200174331665e-01 2.5431901216506958e-01 0.0000000000000000e+00  1.5107700228691101e-01 2.4377299845218658e-01 0.0000000000000000e+00  1.5631499886512756e-01 2.5652700662612915e-01 0.0000000000000000e+00  1.5215499699115753e-01 2.4588599801063538e-01 0.0000000000000000e+00  1.4021299779415131e-01 2.2407799959182739e-01 0.0000000000000000e+00  1.4302499592304230e-01 2.3699100315570831e-01 0.0000000000000000e+00  1.4739599823951721e-01 2.4681699275970459e-01 0.0000000000000000e+00  1.5011200308799744e-01 2.5744900107383728e-01 0.0000000000000000e+00  1.5199099481105804e-01 2.6377901434898376e-01 0.0000000000000000e+00  1.5342399477958679e-01 2.5951400399208069e-01 0.0000000000000000e+00  1.4537200331687927e-01 2.3662999272346497e-01 0.0000000000000000e+00  -4.2325001209974289e-02 7.0665001869201660e-02 0.0000000000000000e+00  -5.2209001034498215e-02 5.4806001484394073e-02 0.0000000000000000e+00  -4.3595001101493835e-02 6.4661003649234772e-02 0.0000000000000000e+00  -7.6890001073479652e-03 1.0888999700546265e-01 0.0000000000000000e+00  -1.7176000401377678e-02 1.0272499918937683e-01 0.0000000000000000e+00  -2.2814000025391579e-02 9.2678003013134003e-02 0.0000000000000000e+00  -3.0851000919938087e-02 8.7815999984741211e-02 0.0000000000000000e+00  -3.4887999296188354e-02 -6.3947997987270355e-02 0.0000000000000000e+00  -3.2859001308679581e-02 -5.8586001396179199e-02 0.0000000000000000e+00  -3.2917000353336334e-02 -5.9744998812675476e-02 0.0000000000000000e+00  -3.4970000386238098e-02 -6.4897000789642334e-02 0.0000000000000000e+00  -4.0851000696420670e-02 -7.6807998120784760e-02 0.0000000000000000e+00  -5.7649999856948853e-02 -9.0416997671127319e-02 0.0000000000000000e+00  -5.3656999021768570e-02 -9.0944997966289520e-02 0.0000000000000000e+00  -5.8899000287055969e-02 -9.4011999666690826e-02 0.0000000000000000e+00  -3.9634998887777328