<?xml version="1.0"?>
<VTKFile type="UnstructuredGrid"  version="0.1"  >
<UnstructuredGrid>
<Piece  NumberOfPoints="6340" NumberOfCells="12376">
<Points>
<DataArray  type="Float64"  NumberOfComponents="3"  format="ascii">-0.01912200078368187 0.02061500027775764 0  -0.01971999928355217 0.02121300064027309 0  -0.01995999924838543 0.02025000005960464 0  -0.02042699977755547 0.02089999988675117 0  -0.01936100050806999 0.01970300078392029 0  -0.01894900016486645 0.02148200012743473 0  -0.01937600038945675 0.02216299995779991 0  -0.01892800070345402 0.0229909997433424 0  -0.01976699940860271 0.0228240005671978 0  -0.01850800029933453 0.02221499942243099 0  -0.008833000436425209 0.01771499961614609 0  -0.009448000229895115 0.01862099952995777 0  -0.009781000204384327 0.01768399961292744 0  -0.01040299981832504 0.01862999983131886 0  -0.02450999990105629 0.07043100148439407 0  -0.02541900053620338 0.07067199796438217 0  -0.02555900067090988 0.06991700083017349 0  -0.02470600046217442 0.06422699987888336 0  -0.02534699998795986 0.06480400264263153 0  -0.0254880003631115 0.06392999738454819 0  -0.02621999941766262 0.06421999633312225 0  -0.01246900018304586 0.0828780010342598 0  -0.01330299954861403 0.08264700323343277 0  -0.01271400041878223 0.08214700222015381 0  -0.01896099932491779 0.07684200257062912 0  -0.01802000030875206 0.07713600248098373 0  -0.01853100024163723 0.0776899978518486 0  -0.01845600083470345 0.07628100365400314 0  -0.02121900022029877 0.02395999990403652 0  -0.02044199965894222 0.02421499975025654 0  -0.02074499987065792 0.02486000023782253 0  -0.02101200073957443 0.02552000060677528 0  -0.02153800055384636 0.02461099997162819 0  -0.01995999924838543 0.02512099966406822 0  -0.01963900029659271 0.02439800091087818 0  -0.01882399991154671 0.02456000074744225 0  -0.01915900036692619 0.02528800070285797 0  -0.02091200090944767 0.02329700067639351 0  -0.02175999991595745 0.02307399921119213 0  -0.02129000052809715 0.02209999971091747 0  -0.0208710003644228 0.02151699922978878 0  -0.02058099955320358 0.02257600054144859 0  -0.02014899998903275 0.02190200053155422 0  -0.01609399914741516 0.02200900018215179 0  -0.01658800058066845 0.02112800069153309 0  -0.01567799970507622 0.02112600021064281 0  -0.01693500019609928 0.02210500091314316 0  -0.01776400022208691 0.02206699922680855 0  -0.01729599945247173 0.02295400016009808 0  0.03918299823999405 0.07642800360918045 0  0.03900200128555298 0.07554899901151657 0  0.04018599912524223 0.07562299817800522 0  0.04025499895215034 0.08667399734258652 0  0.04094899818301201 0.08689499646425247 0  0.03987200185656548 0.08733599632978439 0  0.0225210003554821 0.09442500025033951 0  0.02277900092303753 0.09374299645423889 0  0.02358200028538704 0.0939909964799881 0  0.02154600061476231 0.09482300281524658 0  0.02181700058281422 0.09399899840354919 0  -0.008562999777495861 0.09064400196075439 0  -0.007776999846100807 0.09094499796628952 0  -0.008409000001847744 0.09142100065946579 0  -0.00761000020429492 0.09172800183296204 0  -0.01847199909389019 0.08897999674081802 0  -0.01871299929916859 0.08836500346660614 0  -0.0177800003439188 0.08867699652910233 0  -0.01934600062668324 0.088919997215271 0  -0.01627499982714653 0.09429600089788437 0  -0.01662899926304817 0.09492000192403793 0  -0.01697099953889847 0.09423200041055679 0  -0.01165600027889013 0.0889739990234375 0  -0.01091099996119738 0.08918999880552292 0  -0.01153699960559607 0.08967699855566025 0  -0.01241500023752451 0.08876500278711319 0  -0.01178800035268068 0.08827900141477585 0  -0.01254700031131506 0.08806999772787094 0  -0.01504299975931644 0.08997900038957596 0  -0.01562999933958054 0.09044899791479111 0  -0.01584099978208542 0.08975400030612946 0  -0.01380399987101555 0.0890360027551651 0  -0.01459399983286858 0.08882699906826019 0  -0.01396100036799908 0.08834899961948395 0  0.009668000042438507 0.08896899968385696 0  0.01064800005406141 0.08887699991464615 0  0.009995000436902046 0.08953399956226349 0  0.007395999971777201 0.07785800099372864 0  0.007961000315845013 0.07704299688339233 0  0.008375000208616257 0.07776600122451782 0  -0.008580000139772892 0.01679999940097332 0  -0.007801999803632498 0.01697099953889847 0  -0.009402000345289707 0.01673300005495548 0  -0.01025899965316057 0.01666299998760223 0  -0.01369000039994717 0.01679999940097332 0  -0.01388700027018785 0.01790699921548367 0  -0.01447600033134222 0.01702599972486496 0  -0.01313299965113401 0.01768499985337257 0  -0.01312999986112118 0.01873200014233589 0  -0.01235899981111288 0.01782000064849854 0  -0.01260599959641695 0.02167999930679798 0  -0.01308200042694807 0.0207310002297163 0  -0.01221199985593557 0.02073300071060658 0  -0.01179900020360947 0.01983500085771084 0  -0.01125799957662821 0.02066300064325333 0  -0.01269199978560209 0.01974399946630001 0  -0.01347799971699715 0.02173100039362907 0  -0.01481899991631508 0.02099999971687794 0  -0.01521299965679646 0.02196400053799152 0  -0.01435200031846762 0.02185099944472313 0  -0.009894999675452709 0.01956300064921379 0  -0.01129200030118227 0.03074800036847591 0  -0.01178599987179041 0.0298870000988245 0  -0.01087499968707561 0.02979600057005882 0  -0.00621700007468462 0.02920999936759472 0  -0.006657999940216541 0.03019200079143047 0  -0.007156000006943941 0.02934199944138527 0  -0.008981999941170216 0.01956900022923946 0  -0.006647000089287758 0.01884800009429455 0  -0.007577000185847282 0.01874599978327751 0  -0.006862000096589327 0.01799900084733963 0  -0.00696100015193224 0.01715599931776524 0  -0.006029999814927578 0.01735999993979931 0  0.04255399852991104 0.08345499634742737 0  0.04337599873542786 0.08284000307321548 0  0.04307100176811218 0.084026999771595 0  0.04206699877977371 0.08426400274038315 0  0.0147919999435544 0.05744900181889534 0  0.0157919991761446 0.0571959987282753 0  0.01539199985563755 0.05814199894666672 0  0.02703800052404404 0.04069900140166283 0  0.02742700092494488 0.03959999978542328 0  0.02793700061738491 0.04023699834942818 0  0.02938899956643581 0.0444520004093647 0  0.03023000061511993 0.0436520017683506 0  0.03060599975287914 0.04432699829339981 0  0.02934399992227554 0.04786799848079681 0  0.02844000048935413 0.04808700084686279 0  0.02889899909496307 0.04709000140428543 0  0.02842600084841251 0.04635899886488914 0  0.0293979998677969 0.04609100148081779 0  0.0279530007392168 0.04734399914741516 0  0.02750200033187866 0.04832800105214119 0  0.02743799984455109 0.04664300009608269 0  0.02686299942433834 0.04597900062799454 0  0.02644200064241886 0.04691699892282486 0  0.02584999985992908 0.0462459996342659 0  0.03985000029206276 0.08555299788713455 0  0.03883399814367294 0.0856499969959259 0  0.03949699923396111 0.08500300347805023 0  0.03850600123405457 0.08507499843835831 0  0.005932999774813652 0.02309999987483025 0  0.00661400007084012 0.02353099919855595 0  0.005973000079393387 0.02419400028884411 0  0.006711000110954046 0.0245130006223917 0  0.02543899975717068 0.04718400165438652 0  0.02162200026214123 0.04983000084757805 0  0.02121699973940849 0.05077499896287918 0  0.02061500027775764 0.05007899925112724 0  0.02221599966287613 0.05052600055932999 0  0.0280120000243187 0.04906899854540825 0  0.01614199951291084 0.03371300175786018 0  0.01531600020825863 0.03364500030875206 0  0.01566600054502487 0.03270800039172173 0  0.01129200030118227 0.03944800049066544 0  0.01044000033289194 0.03949899971485138 0  0.01083000004291534 0.03856600075960159 0  0.009976999834179878 0.03861900046467781 0  0.009587000124156475 0.03955100104212761 0  0.009517000056803226 0.03773599863052368 0  0.01036799978464842 0.03768600150942802 0  0.01090199965983629 0.04038200154900551 0  -0.02615600079298019 0.06504599750041962 0  -0.02512500062584877 0.06562700122594833 0  -0.02609699964523315 0.06580100208520889 0  -0.02443099953234196 0.06513100117444992 0  -0.02411199919879436 0.06598299741744995 0  -0.0231309998780489 0.06633300334215164 0  -0.02363700047135353 0.06691200286149979 0  -0.02253299951553345 0.06578700244426727 0  -0.02216899953782558 0.06666400283575058 0  -0.02271099947392941 0.06723400205373764 0  -0.02625099942088127 0.06336800009012222 0  -0.01810799911618233 0.07852400094270706 0  -0.01903799921274185 0.07824099808931351 0  -0.01831999979913235 0.08587899804115295 0  -0.01916100084781647 0.0856809988617897 0  -0.01855600066483021 0.08517900109291077 0  -0.01939300075173378 0.08498500287532806 0  -0.01879500038921833 0.08447200059890747 0  -0.01781100034713745 0.08804100006818771 0  -0.01702399924397469 0.0882359966635704 0  -0.01691799983382225 0.08889099955558777 0  -0.01356299966573715 0.08190400153398514 0  -0.01087499968707561 0.07722900062799454 0  -0.00993799977004528 0.07752200216054916 0  -0.01046200003474951 0.07806400209665298 0  -0.01009599957615137 0.07886900007724762 0  -0.00955399964004755 0.07833900302648544 0  -0.01461999956518412 0.0745450034737587 0  -0.01508000027388334 0.07363899797201157 0  -0.01413400005549192 0.07395099848508835 0  -0.01318799983710051 0.07426200062036514 0  -0.01363500021398067 0.07335799932479858 0  -0.01751299947500229 0.07658100128173828 0  -0.0170230008661747 0.07600200176239014 0  -0.01797300018370152 0.0756940022110939 0  -0.01892399974167347 0.07538799941539764 0  -0.02328000031411648 0.06780199706554413 0  -0.02389900013804436 0.06988299638032913 0  -0.02352100051939487 0.07075899839401245 0  -0.02200900018215179 0.02359100058674812 0  -0.02225000038743019 0.0240899994969368 0  -0.02240600064396858 0.02457199990749359 0  -0.02257400006055832 0.02509200014173985 0  -0.0217719990760088 0.02529999986290932 0  -0.01929499953985214 0.02368799969553947 0  -0.01847299933433533 0.02384000085294247 0  -0.02012199908494949 0.02350600063800812 0  -0.02151799947023392 0.02257299982011318 0  -0.01754599995911121 0.01829000003635883 0  -0.01717700064182281 0.01905399933457375 0  -0.01821999996900558 0.01865999959409237 0  -0.01685499958693981 0.01790999993681908 0  -0.01808200031518936 0.02302199974656105 
[...]
<PointData  Vectors="velocity"> 
<DataArray  type="Float64"  Name="velocity"  NumberOfComponents="3" format="ascii">3.3919999841600657e-03 3.1560000497847795e-03 0.0000000000000000e+00  3.7720000836998224e-03 3.5159999970346689e-03 0.0000000000000000e+00  -3.0219999607652426e-03 -2.2670000325888395e-03 0.0000000000000000e+00  -4.0839998982846737e-03 -2.0010001026093960e-03 0.0000000000000000e+00  -1.7209999496117234e-03 -2.2670000325888395e-03 0.0000000000000000e+00  7.1189999580383301e-03 6.2930001877248287e-03 0.0000000000000000e+00  8.7130004540085793e-03 7.6310001313686371e-03 0.0000000000000000e+00  1.4166999608278275e-02 1.1680999770760536e-02 0.0000000000000000e+00  1.0048000141978264e-02 8.7150000035762787e-03 0.0000000000000000e+00  1.1727999895811081e-02 9.7899995744228363e-03 0.0000000000000000e+00  2.1100000594742596e-04 7.5000003562308848e-05 0.0000000000000000e+00  3.1779999844729900e-03 1.5879999846220016e-03 0.0000000000000000e+00  8.9800002751871943e-04 4.0099999750964344e-04 0.0000000000000000e+00  3.6589999217540026e-03 1.9600000232458115e-03 0.0000000000000000e+00  -8.1359995529055595e-03 -4.1852001100778580e-02 0.0000000000000000e+00  -2.2175999358296394e-02 1.6843000426888466e-02 0.0000000000000000e+00  -2.2410999983549118e-02 1.6373999416828156e-02 0.0000000000000000e+00  -1.0989999864250422e-03 -4.6539001166820526e-02 0.0000000000000000e+00  -2.1790000610053539e-03 -4.2406000196933746e-02 0.0000000000000000e+00  -1.7539999680593610e-03 -4.1946001350879669e-02 0.0000000000000000e+00  -2.5686999782919884e-02 1.3598999939858913e-02 0.0000000000000000e+00  -4.8255000263452530e-02 -7.3330998420715332e-02 0.0000000000000000e+00  -4.4778998941183090e-02 -6.9421000778675079e-02 0.0000000000000000e+00  -4.6486999839544296e-02 -7.5433000922203064e-02 0.0000000000000000e+00  -1.8474999815225601e-02 -5.9393998235464096e-02 0.0000000000000000e+00  -2.0941000431776047e-02 -6.4341001212596893e-02 0.0000000000000000e+00  -2.0111000165343285e-02 -5.9098001569509506e-02 0.0000000000000000e+00  -1.9424000754952431e-02 -6.4589999616146088e-02 0.0000000000000000e+00  4.8759998753666878e-03 4.3270001187920570e-03 0.0000000000000000e+00  1.0072000324726105e-02 8.5150003433227539e-03 0.0000000000000000e+00  8.7139997631311417e-03 7.2849998250603676e-03 0.0000000000000000e+00  8.8409995660185814e-03 7.2920001111924648e-03 0.0000000000000000e+00  4.7269999049603939e-03 4.1450001299381256e-03 0.0000000000000000e+00  1.3311999849975109e-02 1.0594000108540058e-02 0.0000000000000000e+00  1.5449999831616879e-02 1.2454000301659107e-02 0.0000000000000000e+00  2.0625000819563866e-02 1.5827000141143799e-02 0.0000000000000000e+00  1.8993999809026718e-02 1.4410000294446945e-02 0.0000000000000000e+00  6.3970000483095646e-03 5.7509997859597206e-03 0.0000000000000000e+00  -7.1539999917149544e-03 -4.0099999750964344e-04 0.0000000000000000e+00  -6.0439999215304852e-03 -1.5109999803826213e-03 0.0000000000000000e+00  -5.0920001231133938e-03 -1.7490000464022160e-03 0.0000000000000000e+00  5.7580000720918179e-03 5.2579999901354313e-03 0.0000000000000000e+00  4.9439999274909496e-03 4.5570000074803829e-03 0.0000000000000000e+00  1.6202999278903008e-02 1.1868000030517578e-02 0.0000000000000000e+00  1.1012000031769276e-02 8.6669996380805969e-03 0.0000000000000000e+00  1.2347999960184097e-02 9.1789998114109039e-03 0.0000000000000000e+00  1.5173999592661858e-02 1.1648000217974186e-02 0.0000000000000000e+00  1.3027000240981579e-02 1.0507999919354916e-02 0.0000000000000000e+00  1.9082000479102135e-02 1.4402000233530998e-02 0.0000000000000000e+00  9.1292999684810638e-02 1.8289099633693695e-01 0.0000000000000000e+00  8.2285001873970032e-02 1.7594100534915924e-01 0.0000000000000000e+00  -3.3925000578165054e-02 0.0000000000000000e+00 0.0000000000000000e+00  1.5617899596691132e-01 2.5529900193214417e-01 0.0000000000000000e+00  1.5325599908828735e-01 2.4909999966621399e-01 0.0000000000000000e+00  1.5617099404335022e-01 2.6036599278450012e-01 0.0000000000000000e+00  -1.9490000559017062e-03 1.1326699703931808e-01 0.0000000000000000e+00  1.0764000006020069e-02 1.2601000070571899e-01 0.0000000000000000e+00  1.1838999576866627e-02 1.3105900585651398e-01 0.0000000000000000e+00  -1.4325999654829502e-02 9.6565999090671539e-02 0.0000000000000000e+00  1.8400000408291817e-04 1.1171399801969528e-01 0.0000000000000000e+00  -4.6179000288248062e-02 -6.4649999141693115e-02 0.0000000000000000e+00  -4.8147998750209808e-02 -6.9733001291751862e-02 0.0000000000000000e+00  -4.3508000671863556e-02 -6.2590003013610840e-02 0.0000000000000000e+00  -4.5708000659942627e-02 -6.7813999950885773e-02 0.0000000000000000e+00  -1.0333999991416931e-02 -1.1417999863624573e-02 0.0000000000000000e+00  -1.1207999661564827e-02 -1.2903999537229538e-02 0.0000000000000000e+00  -1.3794000260531902e-02 -1.4806999824941158e-02 0.0000000000000000e+00  -2.8217999264597893e-02 1.9889000803232193e-02 0.0000000000000000e+00  -6.4449999481439590e-03 -5.7500000111758709e-03 0.0000000000000000e+00  -3.5324998199939728e-02 1.3549000024795532e-02 0.0000000000000000e+00  -3.4247998148202896e-02 1.4356000348925591e-02 0.0000000000000000e+00  -3.9358001202344894e-02 -4.7591999173164368e-02 0.0000000000000000e+00  -4.2027998715639114e-02 -5.2324000746011734e-02 0.0000000000000000e+00  -3.7420999258756638e-02 -4.5258000493049622e-02 0.0000000000000000e+00  -3.6561999469995499e-02 -4.2982999235391617e-02 0.0000000000000000e+00  -4.1361000388860703e-02 -4.9931000918149948e-02 0.0000000000000000e+00  -3.8465000689029694e-02 -4.5605998486280441e-02 0.0000000000000000e+00  -1.9889999181032181e-02 -2.1115999668836594e-02 0.0000000000000000e+00  -1.6214000061154366e-02 -1.6654999926686287e-02 0.0000000000000000e+00  -1.7411999404430389e-02 -1.8186999484896660e-02 0.0000000000000000e+00  -2.9271999374032021e-02 -3.2421000301837921e-02 0.0000000000000000e+00  -2.6340000331401825e-02 -2.8540000319480896e-02 0.0000000000000000e+00  -3.0612999573349953e-02 -3.4549999982118607e-02 0.0000000000000000e+00  -1.7859999090433121e-02 -2.4749999865889549e-03 0.0000000000000000e+00  -8.3469999954104424e-03 1.4616999775171280e-02 0.0000000000000000e+00  -2.4260999634861946e-02 -1.6139999497681856e-03 0.0000000000000000e+00  9.0193003416061401e-02 4.1234001517295837e-02 0.0000000000000000e+00  9.9201999604701996e-02 5.3987998515367508e-02 0.0000000000000000e+00  9.8155997693538666e-02 5.6683000177145004e-02 0.0000000000000000e+00  1.3598999939858913e-02 3.0219999607652426e-03 0.0000000000000000e+00  1.4290999621152878e-02 3.7140001077204943e-03 0.0000000000000000e+00  1.2391000054776669e-02 2.2970000281929970e-03 0.0000000000000000e+00  1.1130999773740768e-02 1.5409999759867787e-03 0.0000000000000000e+00  6.8000000901520252e-03 -1.5109999803826213e-03 0.0000000000000000e+00  2.0320001058280468e-03 1.5699999639764428e-03 0.0000000000000000e+00  5.8100000023841858e-03 -2.0059999078512192e-03 0.0000000000000000e+00  1.6270000487565994e-03 1.1790000135079026e-03 0.0000000000000000e+00  4.3089999817311764e-03 2.9770000837743282e-03 0.0000000000000000e+00  1.9399999873712659e-03 1.2740000383928418e-03 0.0000000000000000e+00  1.6754999756813049e-02 9.7399996593594551e-03 0.0000000000000000e+00  1.1630999855697155e-02 7.3040002025663853e-03 0.0000000000000000e+00  1.1992000043392181e-02 7.0230001583695412e-03 0.0000000000000000e+00  8.1019997596740723e-03 4.7510000877082348e-03 0.0000000000000000e+00  1.1646999977529049e-02 6.3459998928010464e-03 0.0000000000000000e+00  7.6239998452365398e-03 4.8420000821352005e-03 0.0000000000000000e+00  1.7146000638604164e-02 1.0619999840855598e-02 0.0000000000000000e+00  1.2480000033974648e-02 8.8099995627999306e-03 0.0000000000000000e+00  1.7226999625563622e-02 1.1943000368773937e-02 0.0000000000000000e+00  1.7506999894976616e-02 1.1497000232338905e-02 0.0000000000000000e+00  6.7039998248219490e-03 3.3970000222325325e-03 0.0000000000000000e+00  6.0056000947952271e-02 3.8671001791954041e-02 0.0000000000000000e+00  6.2380000948905945e-02 3.6871999502182007e-02 0.0000000000000000e+00  6.7728996276855469e-02 4.0155000984668732e-02 0.0000000000000000e+00  7.3275998234748840e-02 3.8093999028205872e-02 0.0000000000000000e+00  7.6530002057552338e-02 4.2819000780582428e-02 0.0000000000000000e+00  7.5529001653194427e-02 4.0837001055479050e-02 0.0000000000000000e+00  6.3319997861981392e-03 2.9509998857975006e-03 0.0000000000000000e+00  7.5599999399855733e-04 -1.6999999934341758e-04 0.0000000000000000e+00  1.6789999790489674e-03 5.2200001664459705e-04 0.0000000000000000e+00  -1.1200000299140811e-03 -7.9299998469650745e-04 0.0000000000000000e+00  1.5038000419735909e-02 4.4610002078115940e-03 0.0000000000000000e+00  1.5866000205278397e-02 5.2889999933540821e-03 0.0000000000000000e+00  1.3231100142002106e-01 2.0435799658298492e-01 0.0000000000000000e+00  1.2107700109481812e-01 1.8301099538803101e-01 0.0000000000000000e+00  1.3182500004768372e-01 2.0123800635337830e-01 0.0000000000000000e+00  1.4069400727748871e-01 2.1918199956417084e-01 0.0000000000000000e+00  1.1480200290679932e-01 1.2224099785089493e-01 0.0000000000000000e+00  1.1617600172758102e-01 1.3134300708770752e-01 0.0000000000000000e+00  1.0828900337219238e-01 1.3002100586891174e-01 0.0000000000000000e+00  2.4717999622225761e-02 2.7264000847935677e-02 0.0000000000000000e+00  2.4098999798297882e-02 2.4453999474644661e-02 0.0000000000000000e+00  2.3362999781966209e-02 2.4699000641703606e-02 0.0000000000000000e+00  2.9118999838829041e-02 4.8190001398324966e-02 0.0000000000000000e+00  1.7565999180078506e-02 2.6706999167799950e-02 0.0000000000000000e+00  1.6380999237298965e-02 2.6944000273942947e-02 0.0000000000000000e+00  4.8815999180078506e-02 8.7691999971866608e-02 0.0000000000000000e+00  5.9907998889684677e-02 9.8462000489234924e-02 0.0000000000000000e+00  4.9938999116420746e-02 8.2197003066539764e-02 0.0000000000000000e+00  5.1150999963283539e-02 7.7289998531341553e-02 0.0000000000000000e+00  3.9012998342514038e-02 6.6065996885299683e-02 0.0000000000000000e+00  6.2047999352216721e-02 9.3133002519607544e-02 0.0000000000000000e+00  7.1801997721195221e-02 1.0866499692201614e-01 0.0000000000000000e+00  6.4176000654697418e-02 8.8348999619483948e-02 0.0000000000000000e+00  6.6653996706008911e-02 8.4280997514724731e-02 0.0000000000000000e+00  7.7344000339508057e-02 9.8417997360229492e-02 0.0000000000000000e+00  8.0136001110076904e-02 9.3686997890472412e-02 0.0000000000000000e+00  1.5858900547027588e-01 2.5541099905967712e-01 0.0000000000000000e+00  1.6380600631237030e-01 2.6551300287246704e-01 0.0000000000000000e+00  1.6023300588130951e-01 2.5609499216079712e-01 0.0000000000000000e+00  1.6589899361133575e-01 2.6594001054763794e-01 0.0000000000000000e+00  2.7667000889778137e-02 1.7090000212192535e-02 0.0000000000000000e+00  2.8171999379992485e-02 1.7595000565052032e-02 0.0000000000000000e+00  3.0420001130551100e-03 3.3629999961704016e-03 0.0000000000000000e+00  3.5339999012649059e-03 3.6369999870657921e-03 0.0000000000000000e+00  9.0120002627372742e-02 1.0659000277519226e-01 0.0000000000000000e+00  1.3038000464439392e-01 1.3282899558544159e-01 0.0000000000000000e+00  1.3242900371551514e-01 1.3801500201225281e-01 0.0000000000000000e+00  1.3661499321460724e-01 1.3145899772644043e-01 0.0000000000000000e+00  1.2596499919891357e-01 1.3933999836444855e-01 0.0000000000000000e+00  6.8627998232841492e-02 1.1393000185489655e-01 0.0000000000000000e+00  3.0883999541401863e-02 2.1794000640511513e-02 0.0000000000000000e+00  3.4393001347780228e-02 2.4131000041961670e-02 0.0000000000000000e+00  2.3119999095797539e-02 1.8031999468803406e-02 0.0000000000000000e+00  1.3596999645233154e-01 6.7423999309539795e-02 0.0000000000000000e+00  1.3962599635124207e-01 6.5361000597476959e-02 0.0000000000000000e+00  1.2944300472736359e-01 6.2646999955177307e-02 0.0000000000000000e+00  1.3313700258731842e-01 6.0745000839233398e-02 0.0000000000000000e+00  1.4251099526882172e-01 6.2221001833677292e-02 0.0000000000000000e+00  1.2554800510406494e-01 5.6070998311042786e-02 0.0000000000000000e+00  1.2148100137710571e-01 5.7821001857519150e-02 0.0000000000000000e+00  1.4458300173282623e-01 6.9563001394271851e-02 0.0000000000000000e+00  -2.5175999850034714e-02 1.3855000026524067e-02 0.0000000000000000e+00  -3.0090000946074724e-03 -4.3347999453544617e-02 0.0000000000000000e+00  -2.4707999080419540e-02 1.4089000411331654e-02 0.0000000000000000e+00  -1.7989999614655972e-03 -4.7906000167131424e-02 0.0000000000000000e+00  -2.8959999326616526e-03 -4.9423001706600189e-02 0.0000000000000000e+00  -3.0730001162737608e-03 -5.5502001196146011e-02 0.0000000000000000e+00  -4.6769999898970127e-03 -5.1849000155925751e-02 0.0000000000000000e+00  -1.6550000291317701e-03 -5.9842001646757126e-02 0.0000000000000000e+00  -3.4640000667423010e-03 -6.1558999121189117e-02 0.0000000000000000e+00  -5.1549999043345451e-03 -5.7553000748157501e-02 0.0000000000000000e+00  -2.5950999930500984e-02 1.3334999792277813e-02 0.0000000000000000e+00  -2.2160999476909637e-02 -5.8598000556230545e-02 0.0000000000000000e+00  -1.9452000036835670e-02 -5.3980998694896698e-02 0.0000000000000000e+00  -1.8467999994754791e-02 -2.4103999137878418e-02 0.0000000000000000e+00  -1.5649000182747841e-02 -2.1784000098705292e-02 0.0000000000000000e+00  -1.8671000376343727e-02 -2.6305999606847763e-02 0.0000000000000000e+00  -1.5723999589681625e-02 -2.3657999932765961e-02 0.0000000000000000e+00  -1.8587000668048859e-02 -2.8398999944329262e-02 0.0000000000000000e+00  -1.4883000403642654e-02 -1.6938999295234680e-02 0.0000000000000000e+00  -1.7526000738143921e-02 -1.9228000193834305e-02 0.0000000000000000e+00  -1.6480000689625740e-02 -1.7036000266671181e-02 0.0000000000000000e+00  -4.2826998978853226e-02 -7.1580998599529266e-02 0.0000000000000000e+00  -3.4979999065399170e-02 -1.0056500136852264e-01 0.0000000000000000e+00  -3.6061000078916550e-02 -1.0159099847078323e-01 0.0000000000000000e+00  -3.8490001112222672e-02 -9.9863000214099884e-02 0.0000000000000000e+00  -4.1799001395702362e-02 -9.8733000457286835e-02 0.0000000000000000e+00  -3.9652999490499496e-02 -1.0085800290107727e-01 0.0000000000000000e+00  -2.4578999727964401e-02 -9.2813998460769653e-02 0.0000000000000000e+00  -2.2655000910162926e-02 -9.2777997255325317e-02 0.0000000000000000e+00  -2.3956999182701111e-02 -9.6398003399372101e-02 0.0000000000000000e+00  -2.5055000558495522e-02 -9.9348001182079315e-02 0.0000000000000000e+00  -2.2973999381065369e-02 -9.9537000060081482e-02 0.0000000000000000e+00  -2.1825000643730164e-02 -6.9641001522541046e-02 0.0000000000000000e+00  -2.2594999521970749e-02 -7.4798002839088440e-02 0.0000000000000000e+00  -2.0307000726461411e-02 -6.9721996784210205e-02 0.0000000000000000e+00  -1.8117999657988548e-02 -6.4497999846935272e-02 0.0000000000000000e+00  -6.0859997756779194e-03 -5.3201999515295029e-02 0.0000000000000000e+00  -7.8710000962018967e-03 -4.6229001134634018e-02 0.0000000000000000e+00  -8.9039998129010201e-03 -4.6964000910520554e-02 0.0000000000000000e+00  -7.7419998124241829e-03 1.8699999782256782e-04 0.0000000000000000e+00  -8.3109997212886810e-03 7.5599999399855733e-04 0.0000000000000000e+00  -8.8390000164508820e-03 1.1080000549554825e-03 0.0000000000000000e+00  -9.4069996848702431e-03 1.4870000304654241e-03 0.0000000000000000e+00  5.1950002089142799e-03 4.4800001196563244e-03 0.0000000000000000e+00  1.5409000217914581e-02 1.2567999772727489e-02 0.0000000000000000e+00  1.9828999415040016e-02 1.5385000035166740e-02 0.0000000000000000e+00  1.0928000323474407e-02 9.3679996207356453e-03 0.0000000000000000e+00  -6.5830000676214695e-03 -9.7300001652911305e-04 0.0000000000000000e+00  1.7119999974966049e-03 -2.5059999898076057e-03 0.0000000000000000e+00  2.7379998937249184e-03 2.4800000246614218e-03 0.0000000000000000e+00  7.5599999399855733e-04 -2.2670000325888395e-03 0.0000000000000000e+00  2.6930000167340040e-03 -2.7509999927133322e-03 0.0000000000000000e+00  1.7191000282764435e-02 1.3523999601602554e-02 0.0000000000000000e+00  2.1084999665617943e-02 1.5143999829888344e-02 0.0000000000000000e+00  2.7954999357461929e-02 1.8798999488353729e-02 0.0000000000000000e+00  2.5807999074459076e-02 1.8249999731779099e-02 0.0000000000000000e+00  5.5397998541593552e-02 3.5053998231887817e-02 0.0000000000000000e+00  5.2471000701189041e-02 3.6518998444080353e-02 0.0000000000000000e+00  4.6720001846551895e-02 3.2014001160860062e-02 0.0000000000000000e+00  1.6566000878810883e-02 9.0239997953176498e-03 0.0000000000000000e+00  2.9093999415636063e-02 1.4352000318467617e-02 0.0000000000000000e+00  3.6260001361370087e-02 1.7644999548792839e-02 0.0000000000000000e+00  3.7737000733613968e-02 1.8812000751495361e-02 0.0000000000000000e+00  2.7504999190568924e-02 1.3151000253856182e-02 0.0000000000000000e+00  2.1514000371098518e-02 1.0499999858438969e-02 0.0000000000000000e+00  4.3310999870300293e-02 2.1282000467181206e-02 0.0000000000000000e+00  5.0374999642372131e-02 2.5343000888824463e-02 0.0000000000000000e+00  5.3527001291513443e-02 2.6863999664783478e-02 0.0000000000000000e+00  1.3916000723838806e-01 2.1418100595474243e-01 0.0000000000000000e+00  1.3371700048446655e-01 2.0077699422836304e-01 0.0000000000000000e+00  1.4130499958992004e-01 2.1855400502681732e-01 0.0000000000000000e+00  1.5597699582576752e-01 2.4677899479866028e-01 0.0000000000000000e+00  1.5610900521278381e-01 2.4690300226211548e-01 0.0000000000000000e+00  1.6211399435997009e-01 2.5644201040267944e-01 0.0000000000000000e+00  1.6609700024127960e-01 2.6551800966262817e-01 0.0000000000000000e+00  1.7159999907016754e-01 2.7013000845909119e-01 0.0000000000000000e+00  1.6261799633502960e-01 2.6424598693847656e-01 0.0000000000000000e+00  -3.2487001270055771e-02 0.0000000000000000e+00 0.0000000000000000e+00  1.5532599389553070e-01 2.7246400713920593e-01 0.0000000000000000e+00  1.5217100083827972e-01 2.7428001165390015e-01 0.0000000000000000e+00  1.5836000442504883e-01 2.7580198645591736e-01 0.0000000000000000e+00  1.5964299440383911e-01 2.7159601449966431e-01 0.0000000000000000e+00  1.5641799569129944e-01 2.6963299512863159e-01 0.0000000000000000e+00  1.5744599699974060e-01 2.6687398552894592e-01 0.0000000000000000e+00  1.6947700083255768e-01 2.7201500535011292e-01 0.0000000000000000e+00  1.6744999587535858e-01 2.6623600721359253e-01 0.0000000000000000e+00  1.7115899920463562e-01 2.7176401019096375e-01 0.0000000000000000e+00  1.6849100589752197e-01 2.6622998714447021e-01 0.0000000000000000e+00  1.5734200179576874e-01 2.5530499219894409e-01 0.0000000000000000e+00  1.5982000529766083e-01 2.6546999812126160e-01 0.0000000000000000e+00  1.6220100224018097e-01 2.7072700858116150e-01 0.0000000000000000e+00  1.6254200041294098e-01 2.7520298957824707e-01 0.0000000000000000e+00  1.6466000676155090e-01 2.7905601263046265e-01 0.0000000000000000e+00  1.6633099317550659e-01 2.7594399452209473e-01 0.0000000000000000e+00  1.6143600642681122e-01 2.6440700888633728e-01 0.0000000000000000e+00  -3.8392998278141022e-02 6.1223998665809631e-02 0.0000000000000000e+00  -4.8500001430511475e-02 4.4406998902559280e-02 0.0000000000000000e+00  -3.9707001298666000e-02 5.5190999060869217e-02 0.0000000000000000e+00  -4.7380002215504646e-03 1.0191600024700165e-01 0.0000000000000000e+00  -1.3476000167429447e-02 9.4700001180171967e-02 0.0000000000000000e+00  -1.9409999251365662e-02 8.4639996290206909e-02 0.0000000000000000e+00  -2.6933999732136726e-02 7.8634999692440033e-02 0.0000000000000000e+00  -4.2394999414682388e-02 -5.4614998400211334e-02 0.0000000000000000e+00  -3.6662001162767410e-02 -4.7472000122070312e-02 0.0000000000000000e+00  -3.9981998503208160e-02 -4.9938999116420746e-02 0.0000000000000000e+00  -4.4716000556945801e-02 -5.6922998279333115e-02 0.0000000000000000e+00  -5.1490001380443573e-02 -7.1797996759414673e-02 0.0000000000000000e+00  -5.8488000184297562e-02 -9.0893998742103577e-02 0.0000000000000000e+00  -5.9183001518249512e-02 -9.1920003294944763e-02 0.0000000000000000e+00  -6.3091002404689789e-02 -9.6542000770568848e-02 0.0000000000000000e+00  -4.1076000779