<?xml version="1.0"?>
<VTKFile type="UnstructuredGrid"  version="0.1"  >
<UnstructuredGrid>
<Piece  NumberOfPoints="6340" NumberOfCells="12376">
<Points>
<DataArray  type="Float64"  NumberOfComponents="3"  format="ascii">-0.0192670002579689 0.02063100039958954 0  -0.01996699906885624 0.02128300070762634 0  -0.02019000053405762 0.0203000009059906 0  -0.02074199914932251 0.0210379995405674 0  -0.01949100010097027 0.01971100084483624 0  -0.01911499910056591 0.02150600031018257 0  -0.01962500065565109 0.02223899960517883 0  -0.01916299946606159 0.02305600047111511 0  -0.02009299956262112 0.02298000082373619 0  -0.01865500025451183 0.02223199978470802 0  -0.007872999645769596 0.01806499995291233 0  -0.008565000258386135 0.01890400052070618 0  -0.008892999961972237 0.01796299964189529 0  -0.009592999704182148 0.0188400000333786 0  -0.0266759991645813 0.07445999979972839 0  -0.02765600010752678 0.07486899942159653 0  -0.02780199982225895 0.07406699657440186 0  -0.02687299996614456 0.06783299893140793 0  -0.02757200039923191 0.06853900104761124 0  -0.02771399915218353 0.06763599812984467 0  -0.02851000055670738 0.06804999709129333 0  -0.01368900015950203 0.08638899773359299 0  -0.0146040003746748 0.08625199645757675 0  -0.01398099958896637 0.08558599650859833 0  -0.02076300047338009 0.08059900254011154 0  -0.01975299976766109 0.08077400177717209 0  -0.02030899934470654 0.08147100359201431 0  -0.02021300047636032 0.07989499717950821 0  -0.02175300009548664 0.02439800091087818 0  -0.02090699970722198 0.02452900074422359 0  -0.02126500010490417 0.02528299950063229 0  -0.02158300019800663 0.02604600042104721 0  -0.02212700061500072 0.02516099996864796 0  -0.02041300013661385 0.02542000077664852 0  -0.02002199925482273 0.02461699955165386 0  -0.01911900006234646 0.02469100058078766 0  -0.01952599920332432 0.02549399994313717 0  -0.02139000035822392 0.0236239992082119 0  -0.02231300063431263 0.02354099974036217 0  -0.02175999991595745 0.02239999920129776 0  -0.02126500010490417 0.02173800021409988 0  -0.02098999917507172 0.02281600050628185 0  -0.02047700062394142 0.02205700054764748 0  -0.01594500057399273 0.02194399945437908 0  -0.01645400002598763 0.0210609994828701 0  -0.01544300001114607 0.02105999924242496 0  -0.01688399910926819 0.02204100042581558 0  -0.01781300082802773 0.02204499952495098 0  -0.01733000017702579 0.02292699925601482 0  0.03739500045776367 0.07883500307798386 0  0.03729699924588203 0.07791200280189514 0  0.03841299936175346 0.0780709981918335 0  0.03780899941921234 0.09015099704265594 0  0.0384569987654686 0.09044799953699112 0  0.03745099902153015 0.09095299988985062 0  0.02126399986445904 0.09908399730920792 0  0.02150600031018257 0.0982540026307106 0  0.02225399948656559 0.09858699887990952 0  0.02035499922931194 0.09954100102186203 0  0.02060800045728683 0.09853599965572357 0  -0.008797000162303448 0.09468600153923035 0  -0.007883000187575817 0.09490399807691574 0  -0.008546000346541405 0.09555000066757202 0  -0.00761700002476573 0.09577299654483795 0  -0.01992299966514111 0.09436199814081192 0  -0.02022399939596653 0.09368599951267242 0  -0.01918300054967403 0.09390600025653839 0  -0.02088500000536442 0.09442500025033951 0  -0.01707700081169605 0.1001119986176491 0  -0.01741600036621094 0.10088200122118 0  -0.01785700023174286 0.100152000784874 0  -0.01240099966526031 0.0932840034365654 0  -0.01155299972742796 0.09341000020503998 0  -0.0122079998254776 0.09406799823045731 0  -0.01326000038534403 0.09316699951887131 0  -0.01260500028729439 0.09250999987125397 0  -0.01346400007605553 0.09239400178194046 0  -0.01607500016689301 0.09497799724340439 0  -0.01668700017035007 0.09561000019311905 0  -0.01697600074112415 0.09484600275754929 0  -0.01477800030261278 0.09369999915361404 0  -0.01566700078547001 0.09358400106430054 0  -0.01500300038605928 0.09293600171804428 0  0.00928799994289875 0.09193699806928635 0  0.01020199991762638 0.09185700118541718 0  0.009592000395059586 0.09264300018548965 0  0.007184999994933605 0.07819300144910812 0  0.007757000159472227 0.07730600237846375 0  0.008097999729216099 0.07811299711465836 0  -0.007569999899715185 0.0171900000423193 0  -0.00674000009894371 0.0174189992249012 0  -0.008453000336885452 0.0170620009303093 0  -0.009372999891638756 0.01692900061607361 0  -0.0130799999460578 0.01682999916374683 0  -0.01334000006318092 0.01791599951684475 0  -0.01395099982619286 0.0170230008661747 0  -0.01250899955630302 0.01773300021886826 0  -0.01254099979996681 0.01876099966466427 0  -0.01167699974030256 0.01791599951684475 0  -0.01208299957215786 0.02169300056993961 0  -0.01256799977272749 0.02073699980974197 0  -0.01161800045520067 0.02078000083565712 0  -0.01114100031554699 0.01992700062692165 0  -0.01058600004762411 0.0207739993929863 0  -0.01210200041532516 0.01978000067174435 0  -0.0130409998819232 0.0217099990695715 0  -0.01448400039225817 0.0209369994699955 0  -0.01496300008147955 0.02189899981021881 0  -0.01400499977171421 0.02179599925875664 0  -0.009077000431716442 0.01978999935090542 0  -0.01099700015038252 0.03070200048387051 0  -0.01150500029325485 0.02983300015330315 0  -0.01050100009888411 0.02977799996733665 0  -0.005439000204205513 0.02949699945747852 0  -0.00594600010663271 0.03042300045490265 0  -0.006453999783843756 0.02955500036478043 0  -0.008094999939203262 0.01986500062048435 0  -0.005561999976634979 0.01934400014579296 0  -0.006556999869644642 0.0191699992865324 0  -0.005764999892562628 0.01849799975752831 0  -0.005843000020831823 0.01766600087285042 0  -0.004850000143051147 0.01793999969959259 0  0.04002799838781357 0.08641199767589569 0  0.04087100178003311 0.08583399653434753 0  0.04046399891376495 0.08704099804162979 0  0.03950199857354164 0.08724799752235413 0  0.01581200025975704 0.05860500037670135 0  0.01680199988186359 0.05845599994063377 0  0.01634800061583519 0.05935699865221977 0  0.02884400077164173 0.04317500069737434 0  0.029296999797225 0.0421219989657402 0  0.02974499948322773 0.04280399903655052 0  0.0308190006762743 0.04713400080800056 0  0.03168600052595139 0.04642000049352646 0  0.03199699893593788 0.04712000116705894 0  0.03052400052547455 0.05049100145697594 0  0.02963499911129475 0.05063600093126297 0  0.03015000000596046 0.0496940016746521 0  0.02975199930369854 0.04892899841070175 0  0.03070499934256077 0.04875199869275093 0  0.02922300063073635 0.04985899850726128 0  0.02871599979698658 0.0507889986038208 0  0.02878200076520443 0.04912099987268448 0  0.02828199975192547 0.04840600118041039 0  0.0278060007840395 0.04929700121283531 0  0.02729200012981892 0.04856999963521957 0  0.03743400052189827 0.08875899761915207 0  0.03648599982261658 0.08884400129318237 0  0.03710599988698959 0.08806999772787094 0  0.0361809991300106 0.08812499791383743 0  0.007919999770820141 0.02462499961256981 0  0.008640999905765057 0.02508199959993362 0  0.007926000282168388 0.02569199912250042 0  0.008712000213563442 0.0260429996997118 0  0.02682599984109402 0.04946200177073479 0  0.02295999974012375 0.0517130009829998 0  0.02250299975275993 0.05261100083589554 0  0.0219700001180172 0.0518609993159771 0  0.0234839990735054 0.05246200039982796 0  0.02915200032293797 0.05156100168824196 0  0.01838099956512451 0.0353580005466938 0  0.01752500049769878 0.03525299951434135 0  0.01792800053954124 0.03435499966144562 0  0.01308500021696091 0.04073499888181686 0  0.01218099985271692 0.04075599834322929 0  0.01262800022959709 0.03986300155520439 0  0.01172299962490797 0.03988499939441681 0  0.01127499993890524 0.04077700152993202 0  0.01126500032842159 0.03901100158691406 0  0.01217100024223328 0.03899199888110161 0  0.01263799984008074 0.04162900149822235 0  -0.02844199910759926 0.06892000138759613 0  -0.02733499929308891 0.06938199698925018 0  -0.02837999910116196 0.06971500068902969 0  -0.02658700011670589 0.06874799728393555 0  -0.02624600008130074 0.0696059986948967 0  -0.02519099973142147 0.06983000040054321 0  -0.0257360003888607 0.07052399963140488 0  -0.02454599924385548 0.06915699690580368 0  -0.02415600046515465 0.07003600150346756 0  -0.02473999932408333 0.07072500139474869 0  -0.02853100001811981 0.06715600192546844 0  -0.0198609996587038 0.08233299851417542 0  -0.02086200006306171 0.08216600120067596 0  -0.01992700062692165 0.09075000137090683 0  -0.02085000090301037 0.09065300226211548 0  -0.02021300047636032 0.08998099714517593 0  -0.02113199979066849 0.08988799899816513 0  -0.02050100080668926 0.08920499682426453 0  -0.01925499923527241 0.09317299723625183 0  -0.01838199980556965 0.09328100085258484 0  -0.01822200044989586 0.09402000159025192 0  -0.01490799989551306 0.08544000238180161 0  -0.01205500029027462 0.07972200214862823 0  -0.0110489996150136 0.07989700138568878 0  -0.01161700021475554 0.08058799803256989 0  -0.01122299954295158 0.08143500238656998 0  -0.01063800044357777 0.08075200021266937 0  -0.01605799980461597 0.07736600190401077 0  -0.0165449995547533 0.07644999772310257 0  -0.01552900020033121 0.07663899660110474 0  -0.01451299991458654 0.07682699710130692 0  -0.01498700026422739 0.0759119987487793 0  -0.01920000091195107 0.0800739973783493 0  -0.01866500079631805 0.07935599982738495 0  -0.01968399994075298 0.07917000353336334 0  -0.02070499956607819 0.07898599654436111 0  -0.02535299956798553 0.07141999900341034 0  -0.02601500041782856 0.07376399636268616 0  -0.02561300061643124 0.07466000318527222 0  -0.02260600030422211 0.02414499968290329 0  -0.0228899996727705 0.02473000064492226 0  -0.02307900041341782 0.02529899962246418 0  -0.02328200079500675 0.02591099962592125 0  -0.02240999974310398 0.02595599927008152 0  -0.01960499957203865 0.02383100055158138 0  -0.01869400031864643 0.02389300055801868 0  -0.02051999978721142 0.02373700030148029 0  -0.02202799916267395 0.02295400016009808 0  -0.01739400066435337 0.01821999996900558 0  -0.01701799966394901 0.01898499950766563 0  -0.01816000044345856 0.01858999952673912 0  -0.01660900004208088 0.01783999986946583 0  -0.01821600086987019 0.02303499914705753 0  -0.0164049994
[...]
<PointData  Vectors="velocity"> 
<DataArray  type="Float64"  Name="velocity"  NumberOfComponents="3" format="ascii">1.7940000398084521e-03 2.4490000214427710e-03 0.0000000000000000e+00  2.1200000774115324e-03 2.6879999786615372e-03 0.0000000000000000e+00  -3.7779998965561390e-03 2.2670000325888395e-03 0.0000000000000000e+00  -5.3699999116361141e-03 3.5939998924732208e-03 0.0000000000000000e+00  -2.2169998846948147e-03 1.7460000235587358e-03 0.0000000000000000e+00  4.6399999409914017e-03 5.2189999260008335e-03 0.0000000000000000e+00  4.4680000282824039e-03 4.9970000982284546e-03 0.0000000000000000e+00  7.4220001697540283e-03 7.5739999301731586e-03 0.0000000000000000e+00  5.2319997921586037e-03 5.5700000375509262e-03 0.0000000000000000e+00  6.8799997679889202e-03 7.2719999589025974e-03 0.0000000000000000e+00  7.3500000871717930e-04 -2.0949998870491982e-03 0.0000000000000000e+00  1.9700000120792538e-04 -2.0729999523609877e-03 0.0000000000000000e+00  5.5900000734254718e-04 -1.5600000042468309e-03 0.0000000000000000e+00  1.9999999949504854e-06 -1.4209999935701489e-03 0.0000000000000000e+00  -4.2469999752938747e-03 -2.5855999439954758e-02 0.0000000000000000e+00  4.1769999079406261e-03 7.8840002417564392e-02 0.0000000000000000e+00  2.5329999625682831e-03 7.9074002802371979e-02 0.0000000000000000e+00  -8.2999998994637281e-05 -3.0655000358819962e-02 0.0000000000000000e+00  -5.3600000683218241e-04 -2.5880999863147736e-02 0.0000000000000000e+00  -1.1849999427795410e-03 -2.5690000504255295e-02 0.0000000000000000e+00  -7.5550000183284283e-03 7.7817000448703766e-02 0.0000000000000000e+00  -6.8056002259254456e-02 -4.9125000834465027e-02 0.0000000000000000e+00  -6.0768999159336090e-02 -4.4282998889684677e-02 0.0000000000000000e+00  -6.8154998123645782e-02 -5.4203998297452927e-02 0.0000000000000000e+00  -1.6860000789165497e-02 -4.2624000459909439e-02 0.0000000000000000e+00  -2.1733999252319336e-02 -4.8721998929977417e-02 0.0000000000000000e+00  -2.0913999527692795e-02 -4.1521999984979630e-02 0.0000000000000000e+00  -1.8378000706434250e-02 -4.9899000674486160e-02 0.0000000000000000e+00  4.4979997910559177e-03 4.5980000868439674e-03 0.0000000000000000e+00  7.0569999516010284e-03 6.8509997799992561e-03 0.0000000000000000e+00  7.2289998643100262e-03 6.8210000172257423e-03 0.0000000000000000e+00  6.0129999183118343e-03 5.6389998644590378e-03 0.0000000000000000e+00  3.6299999337643385e-03 3.7199999205768108e-03 0.0000000000000000e+00  1.0311000049114227e-02 9.2569999396800995e-03 0.0000000000000000e+00  9.6349995583295822e-03 8.9699998497962952e-03 0.0000000000000000e+00  1.2257999740540981e-02 1.0941999964416027e-02 0.0000000000000000e+00  1.3233999721705914e-02 1.1369000189006329e-02 0.0000000000000000e+00  3.8199999835342169e-03 4.0879999287426472e-03 0.0000000000000000e+00  -1.0900000110268593e-02 9.3740001320838928e-03 0.0000000000000000e+00  -8.3109997212886810e-03 6.0439999215304852e-03 0.0000000000000000e+00  -6.8830000236630440e-03 4.8540001735091209e-03 0.0000000000000000e+00  2.8959999326616526e-03 3.3189998939633369e-03 0.0000000000000000e+00  2.2799998987466097e-03 2.8109999839216471e-03 0.0000000000000000e+00  8.8489996269345284e-03 9.0159997344017029e-03 0.0000000000000000e+00  5.7680001482367516e-03 6.7300000227987766e-03 0.0000000000000000e+00  6.4610000699758530e-03 7.2869998402893543e-03 0.0000000000000000e+00  8.2240002229809761e-03 8.6019998416304588e-03 0.0000000000000000e+00  7.4280002154409885e-03 7.8750001266598701e-03 0.0000000000000000e+00  1.1493000201880932e-02 1.0904000140726566e-02 0.0000000000000000e+00  5.6304000318050385e-02 1.5150499343872070e-01 0.0000000000000000e+00  5.0044000148773193e-02 1.4913299679756165e-01 0.0000000000000000e+00  2.0842000842094421e-02 5.1134999841451645e-02 0.0000000000000000e+00  4.5632001012563705e-02 1.4536599814891815e-01 0.0000000000000000e+00  4.4215001165866852e-02 1.3853199779987335e-01 0.0000000000000000e+00  3.4901000559329987e-02 1.4153499901294708e-01 0.0000000000000000e+00  -1.2943199276924133e-01 7.8299999237060547e-02 0.0000000000000000e+00  -1.3311199843883514e-01 8.7430998682975769e-02 0.0000000000000000e+00  -1.2688200175762177e-01 8.4113001823425293e-02 0.0000000000000000e+00  -1.2922599911689758e-01 7.3150999844074249e-02 0.0000000000000000e+00  -1.3631999492645264e-01 8.3511002361774445e-02 0.0000000000000000e+00  -4.5274998992681503e-02 -1.8595999106764793e-02 0.0000000000000000e+00  -5.0358999520540237e-02 -2.3845000192523003e-02 0.0000000000000000e+00  -4.3154999613761902e-02 -1.4527999795973301e-02 0.0000000000000000e+00  -4.8962000757455826e-02 -1.9741000607609749e-02 0.0000000000000000e+00  8.3179995417594910e-03 2.0728999748826027e-02 0.0000000000000000e+00  8.5239997133612633e-03 1.8596999347209930e-02 0.0000000000000000e+00  6.0200002044439316e-03 2.0165000110864639e-02 0.0000000000000000e+00  4.3855998665094376e-02 7.1509003639221191e-02 0.0000000000000000e+00  1.9034000113606453e-02 3.7425998598337173e-02 0.0000000000000000e+00  4.9864001572132111e-02 6.1094999313354492e-02 0.0000000000000000e+00  4.9864001572132111e-02 6.2710002064704895e-02 0.0000000000000000e+00  -3.4145001322031021e-02 -2.9249999206513166e-03 0.0000000000000000e+00  -3.8936000317335129e-02 -7.8609995543956757e-03 0.0000000000000000e+00  -2.7282999828457832e-02 1.0979999788105488e-03 0.0000000000000000e+00  -2.9438000172376633e-02 1.2910000514239073e-03 0.0000000000000000e+00  -3.6841001361608505e-02 -6.4240000210702419e-03 0.0000000000000000e+00  -3.1945999711751938e-02 -2.4639999028295279e-03 0.0000000000000000e+00  -4.6000001020729542e-03 2.1104000508785248e-02 0.0000000000000000e+00  -4.6400001156143844e-04 2.4244999513030052e-02 0.0000000000000000e+00  -1.1269999668002129e-03 2.2154999896883965e-02 0.0000000000000000e+00  -1.4302999712526798e-02 1.2236000038683414e-02 0.0000000000000000e+00  -1.0033000260591507e-02 1.4541000127792358e-02 0.0000000000000000e+00  -2.0232999697327614e-02 8.6719999089837074e-03 0.0000000000000000e+00  -1.2471099942922592e-01 2.5343000888824463e-02 0.0000000000000000e+00  -1.2113799899816513e-01 3.8782998919487000e-02 0.0000000000000000e+00  -1.3147799670696259e-01 2.7782000601291656e-02 0.0000000000000000e+00  2.4920001160353422e-03 5.5245999246835709e-02 0.0000000000000000e+00  1.4618000015616417e-02 6.5724998712539673e-02 0.0000000000000000e+00  8.0709997564554214e-03 7.0923000574111938e-02 0.0000000000000000e+00  3.7779998965561390e-03 3.7779998965561390e-03 0.0000000000000000e+00  3.5470000002533197e-03 3.7779998965561390e-03 0.0000000000000000e+00  4.0190001018345356e-03 3.5359999164938927e-03 0.0000000000000000e+00  4.2710001580417156e-03 3.2840000931173563e-03 0.0000000000000000e+00  3.7779998965561390e-03 3.0219999607652426e-03 0.0000000000000000e+00  -7.0799997774884105e-04 8.3099998300895095e-04 0.0000000000000000e+00  3.5300001036375761e-03 2.2789998911321163e-03 0.0000000000000000e+00  -9.0799998724833131e-04 4.7200001426972449e-04 0.0000000000000000e+00  -6.0000002122251317e-06 1.4479999663308263e-03 0.0000000000000000e+00  -9.4400002853944898e-04 1.4699999883305281e-04 0.0000000000000000e+00  9.4849998131394386e-03 5.7100001722574234e-03 0.0000000000000000e+00  5.5749998427927494e-03 4.6859998255968094e-03 0.0000000000000000e+00  5.7009998708963394e-03 3.4099998883903027e-03 0.0000000000000000e+00  2.3620000574737787e-03 1.2629999546334147e-03 0.0000000000000000e+00  5.3519997745752335e-03 1.8299999646842480e-03 0.0000000000000000e+00  2.2199999075382948e-03 2.4329998996108770e-03 0.0000000000000000e+00  9.5490003004670143e-03 7.1820002049207687e-03 0.0000000000000000e+00  6.2730000354349613e-03 6.8769999779760838e-03 0.0000000000000000e+00  9.5229996368288994e-03 9.1140000149607658e-03 0.0000000000000000e+00  9.7300000488758087e-03 8.4669999778270721e-03 0.0000000000000000e+00  1.6280000563710928e-03 -1.1889999732375145e-03 0.0000000000000000e+00  5.8258999139070511e-02 2.4085000157356262e-02 0.0000000000000000e+00  5.4864000529050827e-02 2.3036999627947807e-02 0.0000000000000000e+00  5.7583998888731003e-02 2.3736000061035156e-02 0.0000000000000000e+00  6.0734000056982040e-02 2.1607000380754471e-02 0.0000000000000000e+00  6.7250996828079224e-02 2.4676999077200890e-02 0.0000000000000000e+00  6.1184998601675034e-02 2.2484999150037766e-02 0.0000000000000000e+00  1.5439999988302588e-03 -1.6520000062882900e-03 0.0000000000000000e+00  -3.9599998854100704e-04 -2.4300001095980406e-03 0.0000000000000000e+00  5.8000001445179805e-05 -2.3809999693185091e-03 0.0000000000000000e+00  -7.5800000922754407e-04 -2.6430001016706228e-03 0.0000000000000000e+00  3.2979999668896198e-03 3.7779998965561390e-03 0.0000000000000000e+00  3.0219999607652426e-03 3.7779998965561390e-03 0.0000000000000000e+00  7.3910996317863464e-02 1.4033100008964539e-01 0.0000000000000000e+00  7.4486002326011658e-02 1.3268600404262543e-01 0.0000000000000000e+00  7.1681998670101166e-02 1.3559100031852722e-01 0.0000000000000000e+00  7.1395002305507660e-02 1.4435100555419922e-01 0.0000000000000000e+00  9.6087001264095306e-02 1.0480900108814240e-01 0.0000000000000000e+00  9.5764003694057465e-02 1.1177600175142288e-01 0.0000000000000000e+00  9.5008999109268188e-02 1.0933800041675568e-01 0.0000000000000000e+00  1.7926000058650970e-02 1.9805999472737312e-02 0.0000000000000000e+00  2.4175999686121941e-02 1.9997999072074890e-02 0.0000000000000000e+00  2.4175999686121941e-02 2.0979000255465508e-02 0.0000000000000000e+00  1.9711999222636223e-02 3.4715998917818069e-02 0.0000000000000000e+00  2.4932000786066055e-02 2.4705000221729279e-02 0.0000000000000000e+00  2.4932000786066055e-02 2.5179000571370125e-02 0.0000000000000000e+00  3.3527001738548279e-02 6.2098998576402664e-02 0.0000000000000000e+00  4.0890999138355255e-02 7.0495001971721649e-02 0.0000000000000000e+00  3.3645998686552048e-02 5.8745998889207840e-02 0.0000000000000000e+00  3.3897001296281815e-02 5.5783998221158981e-02 0.0000000000000000e+00  2.5931000709533691e-02 4.7099001705646515e-02 0.0000000000000000e+00  4.1510999202728271e-02 6.7403003573417664e-02 0.0000000000000000e+00  4.8666998744010925e-02 7.9236000776290894e-02 0.0000000000000000e+00  4.2275000363588333e-02 6.4809001982212067e-02 0.0000000000000000e+00  4.4419001787900925e-02 6.2242001295089722e-02 0.0000000000000000e+00  5.0971001386642456e-02 7.3747001588344574e-02 0.0000000000000000e+00  5.4292999207973480e-02 7.0440001785755157e-02 0.0000000000000000e+00  5.8676000684499741e-02 1.5588000416755676e-01 0.0000000000000000e+00  5.5397000163793564e-02 1.6098299622535706e-01 0.0000000000000000e+00  6.4332999289035797e-02 1.6087399423122406e-01 0.0000000000000000e+00  6.1636000871658325e-02 1.6580100357532501e-01 0.0000000000000000e+00  8.0239996314048767e-03 3.0219999607652426e-03 0.0000000000000000e+00  8.5279997438192368e-03 3.0219999607652426e-03 0.0000000000000000e+00  5.6289997883141041e-03 4.2510000057518482e-03 0.0000000000000000e+00  5.7740001939237118e-03 4.5429999008774757e-03 0.0000000000000000e+00  5.9808999300003052e-02 8.1956997513771057e-02 0.0000000000000000e+00  9.0288996696472168e-02 1.1556799709796906e-01 0.0000000000000000e+00  9.2689000070095062e-02 1.2035600095987320e-01 0.0000000000000000e+00  9.5167003571987152e-02 1.1758600175380707e-01 0.0000000000000000e+00  8.8188000023365021e-02 1.1851599812507629e-01 0.0000000000000000e+00  4.7573998570442200e-02 8.2148998975753784e-02 0.0000000000000000e+00  2.9260000213980675e-02 1.9631000235676765e-02 0.0000000000000000e+00  3.2852001488208771e-02 2.2146999835968018e-02 0.0000000000000000e+00  2.2983999922871590e-02 1.6129000112414360e-02 0.0000000000000000e+00  1.1440200358629227e-01 6.2871001660823822e-02 0.0000000000000000e+00  1.1852700263261795e-01 6.1939001083374023e-02 0.0000000000000000e+00  1.0928300023078918e-01 5.8619000017642975e-02 0.0000000000000000e+00  1.1338199675083160e-01 5.8024998754262924e-02 0.0000000000000000e+00  1.2229000031948090e-01 6.0871001332998276e-02 0.0000000000000000e+00  1.0788200050592422e-01 5.4010998457670212e-02 0.0000000000000000e+00  1.0351099818944931e-01 5.4258998483419418e-02 0.0000000000000000e+00  1.2199799716472626e-01 6.6201999783515930e-02 0.0000000000000000e+00  -6.0209999792277813e-03 7.8073002398014069e-02 0.0000000000000000e+00  -8.3799997810274363e-04 -2.6796000078320503e-02 0.0000000000000000e+00  -4.6179997734725475e-03 7.8307002782821655e-02 0.0000000000000000e+00  6.8100000498816371e-04 -3.1406000256538391e-02 0.0000000000000000e+00  7.2100001852959394e-04 -3.2910000532865524e-02 0.0000000000000000e+00  1.6909999540075660e-03 -3.9480999112129211e-02 0.0000000000000000e+00  -9.7400002414360642e-04 -3.5766001790761948e-02 0.0000000000000000e+00  2.1609999239444733e-03 -4.5092999935150146e-02 0.0000000000000000e+00  2.2130000870674849e-03 -4.6808000653982162e-02 0.0000000000000000e+00  -2.4999999368446879e-05 -4.2116001248359680e-02 0.0000000000000000e+00  -8.3459997549653053e-03 7.7289998531341553e-02 0.0000000000000000e+00  -2.5452999398112297e-02 -3.9854999631643295e-02 0.0000000000000000e+00  -2.0393999293446541e-02 -3.4843001514673233e-02 0.0000000000000000e+00  -3.0249999836087227e-03 8.5570001974701881e-03 0.0000000000000000e+00  2.7899999986402690e-04 8.4669999778270721e-03 0.0000000000000000e+00  -4.6450002118945122e-03 5.4729999974370003e-03 0.0000000000000000e+00  -9.1800000518560410e-04 5.7080001570284367e-03 0.0000000000000000e+00  -9.0680001303553581e-03 1.7630000365898013e-03 0.0000000000000000e+00  4.8299999907612801e-03 1.8115000799298286e-02 0.0000000000000000e+00  1.6260000411421061e-03 1.8022000789642334e-02 0.0000000000000000e+00  2.8580001089721918e-03 2.0445000380277634e-02 0.0000000000000000e+00  -6.0672000050544739e-02 -4.9274999648332596e-02 0.0000000000000000e+00  -6.0384999960660934e-02 -1.0927499830722809e-01 0.0000000000000000e+00  -6.7069001495838165e-02 -1.1335399746894836e-01 0.0000000000000000e+00  -6.9550000131130219e-02 -1.0648900270462036e-01 0.0000000000000000e+00  -7.7206999063491821e-02 -1.0316299647092819e-01 0.0000000000000000e+00  -7.6238997280597687e-02 -1.1000700294971466e-01 0.0000000000000000e+00  -3.0372999608516693e-02 -9.5412001013755798e-02 0.0000000000000000e+00  -2.3529000580310822e-02 -9.5118999481201172e-02 0.0000000000000000e+00  -2.7837000787258148e-02 -1.0235799849033356e-01 0.0000000000000000e+00  -3.2441001385450363e-02 -1.0910700261592865e-01 0.0000000000000000e+00  -2.2338999435305595e-02 -1.0847000032663345e-01 0.0000000000000000e+00  -2.3237999528646469e-02 -5.6432001292705536e-02 0.0000000000000000e+00  -2.3856999352574348e-02 -6.4205996692180634e-02 0.0000000000000000e+00  -1.9155999645590782e-02 -5.7293001562356949e-02 0.0000000000000000e+00  -1.4995000325143337e-02 -5.0496999174356461e-02 0.0000000000000000e+00  -1.2479999568313360e-03 -3.7092998623847961e-02 0.0000000000000000e+00  -3.0580000020563602e-03 -2.9958000406622887e-02 0.0000000000000000e+00  -3.7340000271797180e-03 -3.0960999429225922e-02 0.0000000000000000e+00  -1.2272000312805176e-02 1.1137000285089016e-02 0.0000000000000000e+00  -1.3598999939858913e-02 1.2844000011682510e-02 0.0000000000000000e+00  -1.4302999712526798e-02 1.4604000374674797e-02 0.0000000000000000e+00  -1.5061999671161175e-02 1.6499999910593033e-02 0.0000000000000000e+00  3.4980000928044319e-03 3.5059999208897352e-03 0.0000000000000000e+00  8.5969995707273483e-03 8.3529995754361153e-03 0.0000000000000000e+00  1.0925999842584133e-02 1.0201999917626381e-02 0.0000000000000000e+00  6.1639999039471149e-03 6.2509998679161072e-03 0.0000000000000000e+00  -9.5669999718666077e-03 7.6589998789131641e-03 0.0000000000000000e+00  1.4730000402778387e-03 7.5599999399855733e-04 0.0000000000000000e+00  1.1599999852478504e-03 2.0250000525265932e-03 0.0000000000000000e+00  7.5599999399855733e-04 7.5599999399855733e-04 0.0000000000000000e+00  2.2090000566095114e-03 7.5599999399855733e-04 0.0000000000000000e+00  9.5539996400475502e-03 9.3930000439286232e-03 0.0000000000000000e+00  1.2079999782145023e-02 1.1134999804198742e-02 0.0000000000000000e+00  1.6922999173402786e-02 1.3597999699413776e-02 0.0000000000000000e+00  1.5100000426173210e-02 1.2926000170409679e-02 0.0000000000000000e+00  5.3777001798152924e-02 2.2445999085903168e-02 0.0000000000000000e+00  5.4699998348951340e-02 2.2412000223994255e-02 0.0000000000000000e+00  4.9176998436450958e-02 2.0005000755190849e-02 0.0000000000000000e+00  9.4680003821849823e-03 4.2309998534619808e-03 0.0000000000000000e+00  1.9277000799775124e-02 7.1539999917149544e-03 0.0000000000000000e+00  2.4873999878764153e-02 9.0410001575946808e-03 0.0000000000000000e+00  2.5166999548673630e-02 1.0131999850273132e-02 0.0000000000000000e+00  1.8552999943494797e-02 6.0120001435279846e-03 0.0000000000000000e+00  1.3561000116169453e-02 4.2869998142123222e-03 0.0000000000000000e+00  3.0662000179290771e-02 1.1067000217735767e-02 0.0000000000000000e+00  3.6752000451087952e-02 1.3275000266730785e-02 0.0000000000000000e+00  3.7441998720169067e-02 1.4313999563455582e-02 0.0000000000000000e+00  6.3707999885082245e-02 1.3274799287319183e-01 0.0000000000000000e+00  6.1312999576330185e-02 1.2271299958229065e-01 0.0000000000000000e+00  5.7668000459671021e-02 1.2912599742412567e-01 0.0000000000000000e+00  7.6766997575759888e-02 1.6659900546073914e-01 0.0000000000000000e+00  7.3486000299453735e-02 1.6267299652099609e-01 0.0000000000000000e+00  7.3049999773502350e-02 1.6937999427318573e-01 0.0000000000000000e+00  7.8034996986389160e-02 1.9181600213050842e-01 0.0000000000000000e+00  7.7050000429153442e-02 1.9498400390148163e-01 0.0000000000000000e+00  7.6318003237247467e-02 1.9361799955368042e-01 0.0000000000000000e+00  1.9642999395728111e-02 5.1375001668930054e-02 0.0000000000000000e+00  1.4440000057220459e-02 1.4419500529766083e-01 0.0000000000000000e+00  2.9329999815672636e-03 1.4391599595546722e-01 0.0000000000000000e+00  1.7846999689936638e-02 1.5062500536441803e-01 0.0000000000000000e+00  2.9262000694870949e-02 1.5106600522994995e-01 0.0000000000000000e+00  2.1950999274849892e-02 1.4405700564384460e-01 0.0000000000000000e+00  2.8342999517917633e-02 1.4290200173854828e-01 0.0000000000000000e+00  5.9294998645782471e-02 1.7071700096130371e-01 0.0000000000000000e+00  6.6605001688003540e-02 1.7032299935817719e-01 0.0000000000000000e+00  6.4493998885154724e-02 1.7508800327777863e-01 0.0000000000000000e+00  7.1108996868133545e-02 1.7406900227069855e-01 0.0000000000000000e+00  5.1780998706817627e-02 1.5072000026702881e-01 0.0000000000000000e+00  3.9643999189138412e-02 1.4944000542163849e-01 0.0000000000000000e+00  3.8773000240325928e-02 1.5555199980735779e-01 0.0000000000000000e+00  3.1468000262975693e-02 1.5815100073814392e-01 0.0000000000000000e+00  2.9278999194502831e-02 1.6243399679660797e-01 0.0000000000000000e+00  4.1271001100540161e-02 1.6448600590229034e-01 0.0000000000000000e+00  4.8622999340295792e-02 1.5557900071144104e-01 0.0000000000000000e+00  -1.2439700216054916e-01 6.3211999833583832e-02 0.0000000000000000e+00  -1.1985400319099426e-01 5.8988001197576523e-02 0.0000000000000000e+00  -1.3376100361347198e-01 6.5716996788978577e-02 0.0000000000000000e+00  -1.4182899892330170e-01 8.3554998040199280e-02 0.0000000000000000e+00  -1.3534699380397797e-01 7.6498001813888550e-02 0.0000000000000000e+00  -1.3898700475692749e-01 7.5433999300003052e-02 0.0000000000000000e+00  -1.2807700037956238e-01 6.8065002560615540e-02 0.0000000000000000e+00  -3.5879999399185181e-02 -8.1049995496869087e-03 0.0000000000000000e+00  -2.8362000361084938e-02 2.3299999884329736e-04 0.0000000000000000e+00  -3.1631998717784882e-02 -3.5029998980462551e-03 0.0000000000000000e+00  -4.3682001531124115e-02 -1.2574000284075737e-02 0.0000000000000000e+00  -5.8162000030279160e-02 -2.8524000197649002e-02 0.0000000000000000e+00  -7.9527996480464935e-02 -3.6097999662160873e-02 0.0000000000000000e+00  -7.8144997358322144e-02 -4.1903998702764511e-02 0.0000000000000000e+00  -8.7972000241279602e-02 -4.3696001172065735e-02 0.0000000000000000e+00  -4.2543001472949982e-02 -1.0715999640524387e-02 0.000