<?xml version="1.0"?>
<VTKFile type="UnstructuredGrid"  version="0.1"  >
<UnstructuredGrid>
<Piece  NumberOfPoints="6340" NumberOfCells="12376">
<Points>
<DataArray  type="Float64"  NumberOfComponents="3"  format="ascii">-0.01940100081264973 0.02069699950516224 0  -0.02010500058531761 0.02135599963366985 0  -0.02032000012695789 0.0203699991106987 0  -0.02091399952769279 0.02112499997019768 0  -0.01962799951434135 0.01977800019085407 0  -0.01924500055611134 0.02157299965620041 0  -0.01976500079035759 0.02231200039386749 0  -0.01929499953985214 0.02312600053846836 0  -0.02026999928057194 0.0230689998716116 0  -0.01878499984741211 0.02229700051248074 0  -0.00865899957716465 0.01774900034070015 0  -0.009283999912440777 0.01864499971270561 0  -0.009615000337362289 0.01770699955523014 0  -0.01024600025266409 0.01864200085401535 0  -0.02614800073206425 0.07739000022411346 0  -0.02711199969053268 0.07789599895477295 0  -0.02725500054657459 0.0771000012755394 0  -0.02671900019049644 0.07060399651527405 0  -0.02732899971306324 0.07140299677848816 0  -0.02755199931561947 0.07048399746417999 0  -0.02827999927103519 0.07099000364542007 0  -0.01316099986433983 0.08869700133800507 0  -0.01412499975413084 0.08861099928617477 0  -0.01355300005525351 0.08783400058746338 0  -0.02050199918448925 0.08309099823236465 0  -0.01950900070369244 0.08318000286817551 0  -0.02007099986076355 0.08395999670028687 0  -0.01994100026786327 0.08230700343847275 0  -0.02210400067269802 0.0245789997279644 0  -0.02116700075566769 0.02465599961578846 0  -0.0216049998998642 0.02545800060033798 0  -0.02199899964034557 0.02626599930226803 0  -0.0225600004196167 0.02539199963212013 0  -0.02065999992191792 0.02553999982774258 0  -0.02022800035774708 0.02471799962222576 0  -0.01928099989891052 0.02477299980819225 0  -0.01972400024533272 0.02559199929237366 0  -0.02165899984538555 0.02375699952244759 0  -0.02268600091338158 0.02373399958014488 0  -0.02201000042259693 0.02252000011503696 0  -0.02147799916565418 0.02184299938380718 0  -0.02120999991893768 0.02292300015687943 0  -0.02065500058233738 0.02214699983596802 0  -0.01612699963152409 0.02198999933898449 0  -0.01663099974393845 0.02111000008881092 0  -0.0156640000641346 0.02109800092875957 0  -0.01702499948441982 0.0220979992300272 0  -0.01794900000095367 0.02210599929094315 0  -0.01746400073170662 0.02298600040376186 0  0.04381600022315979 0.0824040025472641 0  0.04345399886369705 0.08150099962949753 0  0.04481099918484688 0.08177699893712997 0  0.04651099815964699 0.09400899708271027 0  0.04733400046825409 0.09438399970531464 0  0.04622200131416321 0.09487000107765198 0  0.02833399921655655 0.1026799976825714 0  0.02847900055348873 0.1017789989709854 0  0.02942799963057041 0.1022019982337952 0  0.02732899971306324 0.1031180024147034 0  0.02745800092816353 0.1020260006189346 0  -0.006357999984174967 0.09778600186109543 0  -0.005375000182539225 0.09787199646234512 0  -0.005956999957561493 0.09865999966859818 0  -0.004970000125467777 0.09874399751424789 0  -0.01854399964213371 0.0980679988861084 0  -0.01896500028669834 0.09731400012969971 0  -0.01783400028944016 0.0975089967250824 0  -0.01954800076782703 0.09819100052118301 0  -0.01429300010204315 0.1045849993824959 0  -0.01449900027364492 0.1054800003767014 0  -0.01515099965035915 0.1046790033578873 0  -0.01060799974948168 0.09653399884700775 0  -0.009642000310122967 0.09663300216197968 0  -0.01022399961948395 0.09742099791765213 0  -0.01157800015062094 0.0964289978146553 0  -0.01099599990993738 0.09564299881458282 0  -0.0119650000706315 0.09553799778223038 0  -0.01429300010204315 0.09863399714231491 0  -0.0148329995572567 0.09939000010490417 0  -0.0152989998459816 0.09851399809122086 0  -0.01313600037246943 0.09710299968719482 0  -0.014121999964118 0.09700100123882294 0  -0.01352700032293797 0.09622400254011154 0  0.01283599995076656 0.09389899671077728 0  0.0139110004529357 0.09387800097465515 0  0.01331999991089106 0.09470199793577194 0  0.007965999655425549 0.07854499667882919 0  0.008481999859213829 0.07767000049352646 0  0.009041000157594681 0.07852400094270706 0  -0.00839999970048666 0.01683999970555305 0  -0.007615999784320593 0.01701400056481361 0  -0.009228000417351723 0.016762999817729 0  -0.0100919995456934 0.01668299920856953 0  -0.01355000026524067 0.01678000018000603 0  -0.01376399956643581 0.01788300089538097 0  -0.01435900013893843 0.01699900068342686 0  -0.01299300044775009 0.01766899973154068 0  -0.01299399975687265 0.01871299929916859 0  -0.01221300009638071 0.01781200058758259 0  -0.01248800009489059 0.02165899984538555 0  -0.01296599954366684 0.0207080002874136 0  -0.01207800023257732 0.02071700058877468 0  -0.01165799982845783 0.01982700079679489 0  -0.01111800037324429 0.02065899968147278 0  -0.01255800016224384 0.01972600072622299 0  -0.01338300015777349 0.02170299924910069 0  -0.01475199963897467 0.02096300013363361 0  -0.01518999971449375 0.02193400077521801 0  -0.01428100001066923 0.02181600034236908 0  -0.009738000109791756 0.01957800053060055 0  -0.01123199984431267 0.0307180006057024 0  -0.01173000037670135 0.02985600009560585 0  -0.01079300045967102 0.02977200038731098 0  -0.006076999939978123 0.02923800051212311 0  -0.006525999866425991 0.03021200001239777 0  -0.007023999933153391 0.0293589998036623 0  -0.008818999864161015 0.01959500089287758 0  -0.006459999829530716 0.01889299973845482 0  -0.007397999987006187 0.01878700032830238 0  -0.006672999821603298 0.0180440004914999 0  -0.006767999846488237 0.01720199920237064 0  -0.005830000154674053 0.01741000078618526 0  0.04849100112915039 0.09010399878025055 0  0.04937399923801422 0.08959899842739105 0  0.04913200065493584 0.09078700095415115 0  0.04802900180220604 0.0909229964017868 0  0.01605499908328056 0.05859199911355972 0  0.01710999943315983 0.05847100168466568 0  0.01665199920535088 0.05937600135803223 0  0.02953699976205826 0.04326499998569489 0  0.02998699992895126 0.04220199957489967 0  0.0304969996213913 0.04292000085115433 0  0.03190499916672707 0.04746799916028976 0  0.03282399848103523 0.04678000137209892 0  0.03321300074458122 0.04754199832677841 0  0.03179100155830383 0.05100899934768677 0  0.03080799989402294 0.05107700079679489 0  0.03132199868559837 0.0501209981739521 0  0.03083099983632565 0.04928399994969368 0  0.0318790003657341 0.04916900023818016 0  0.03030199930071831 0.05022500082850456 0  0.02979700081050396 0.05116999894380569 0  0.02976600080728531 0.04941299930214882 0  0.02917099930346012 0.04863600060343742 0  0.02869600057601929 0.04953400045633316 0  0.02808799967169762 0.0487539991736412 0  0.04582500085234642 0.09244199842214584 0  0.04470900073647499 0.09246700257062912 0  0.04531500115990639 0.09165599942207336 0  0.04422200098633766 0.09164900332689285 0  0.007000999990850687 0.02361400052905083 0  0.007765000220388174 0.02409099973738194 0  0.007027999963611364 0.02470199950039387 0  0.007859000004827976 0.02507299929857254 0  0.02762399986386299 0.04965300112962723 0  0.02350500039756298 0.05179300159215927 0  0.02304499968886375 0.05269699916243553 0  0.02243999950587749 0.05190600082278252 0  0.02410499937832355 0.05258699879050255 0  0.03033200092613697 0.05202800035476685 0  0.01824199967086315 0.03494499996304512 0  0.01733499951660633 0.03480200096964836 0  0.01774000003933907 0.03390000015497208 0  0.01277200039476156 0.04023100063204765 0  0.01182099990546703 0.04021900147199631 0  0.01227299962192774 0.03932100161910057 0  0.01131999958306551 0.03931000083684921 0  0.0108679998666048 0.04020600020885468 0  0.01081900019198656 0.03839800134301186 0  0.01177299953997135 0.03841299936175346 0  0.01232099998742342 0.04112900048494339 0  -0.02814099937677383 0.07188399881124496 0  -0.02702699974179268 0.07225199788808823 0  -0.02801400050520897 0.07270099967718124 0  -0.02635500021278858 0.07152199745178223 0  -0.02595200017094612 0.07237599790096283 0  -0.02490999922156334 0.07250300049781799 0  -0.02538000047206879 0.07327599823474884 0  -0.02434000000357628 0.07174400240182877 0  -0.023887999355793 0.07261399924755096 0  -0.02439700067043304 0.07338599860668182 0  -0.0283879991620779 0.07006800174713135 0  -0.01963800005614758 0.08482500165700912 0  -0.02063100039958954 0.08473700284957886 0  -0.01907799951732159 0.09398099780082703 0  -0.02005100063979626 0.09393399953842163 0  -0.01947600021958351 0.09314200282096863 0  -0.0204440001398325 0.09309899806976318 0  -0.01986999996006489 0.09230100363492966 0  -0.01802299916744232 0.09667900204658508 0  -0.01708599925041199 0.09675499796867371 0  -0.01678800024092197 0.09760099649429321 0  -0.01451599970459938 0.08774799853563309 0  -0.01189300045371056 0.08136700093746185 0  -0.01090400014072657 0.0814569965004921 0  -0.01146799977868795 0.08223800361156464 0  -0.01106400042772293 0.08310800045728683 0  -0.01049300003796816 0.08232700079679489 0  -0.01575100049376488 0.0793209969997406 0  -0.01620000042021275 0.07843600213527679 0  -0.01520599983632565 0.07853099703788757 0  -0.01421300042420626 0.07862599939107895 0  -0.01465899962931871 0.07774200290441513 0  -0.01894900016486645 0.08239799737930298 0  -0.01839499920606613 0.08160699903964996 0  -0.01939000003039837 0.08151300251483917 0  -0.02038599923253059 0.08142100274562836 0  -0.02494199946522713 0.07416299730539322 0  -0.0254989992827177 0.07662399858236313 0  -0.02510399930179119 0.07749000191688538 0  -0.02304399944841862 0.02437799982726574 0  -0.02339000068604946 0.02500000037252903 0  -0.02364899963140488 0.02562700025737286 0  -0.0239269994199276 0.02630200050771236 0  -0.02292300015687943 0.02623900026082993 0  -0.01977499946951866 0.02391600050032139 0  -0.01881900057196617 0.02395999990403652 0  -0.02073399908840656 0.02384199947118759 0  -0.02233799919486046 0.02310900017619133 0  -0.01758500002324581 0.01827000081539154 0  -0.01721099950373173 0.01903400011360645 0  -0.01830999925732613 0.0186500009149313 0  -0.01684200018644333 0.0178810004144907 0  -0.01834399998188019 0.02309799939393997 0  -0.016548000
[...]
<PointData  Vectors="velocity"> 
<DataArray  type="Float64"  Name="velocity"  NumberOfComponents="3" format="ascii">2.9050000011920929e-03 -2.8300000121816993e-04 0.0000000000000000e+00  2.4149999953806400e-03 -3.2299998565576971e-04 0.0000000000000000e+00  2.2670000325888395e-03 -1.5109999803826213e-03 0.0000000000000000e+00  3.8590000476688147e-03 -2.0419999491423368e-03 0.0000000000000000e+00  1.2260000221431255e-03 -1.2509999796748161e-03 0.0000000000000000e+00  4.6430001966655254e-03 3.8999998650979251e-05 0.0000000000000000e+00  4.3950001709163189e-03 3.0999999580672011e-05 0.0000000000000000e+00  6.2959999777376652e-03 6.1999999161344022e-05 0.0000000000000000e+00  3.9969999343156815e-03 -7.2000002546701580e-05 0.0000000000000000e+00  6.8089999258518219e-03 1.9900000188499689e-04 0.0000000000000000e+00  9.9489996209740639e-03 -6.5870000980794430e-03 0.0000000000000000e+00  1.0930000571534038e-03 -1.0789000429213047e-02 0.0000000000000000e+00  1.0412000119686127e-02 -6.5000001341104507e-03 0.0000000000000000e+00  8.2120001316070557e-03 -7.6489998027682304e-03 0.0000000000000000e+00  -2.0760999992489815e-02 -5.6761998683214188e-02 0.0000000000000000e+00  1.2354999780654907e-02 -5.4397001862525940e-02 0.0000000000000000e+00  1.2590000405907631e-02 -5.4397001862525940e-02 0.0000000000000000e+00  -1.6617000102996826e-02 -8.0959998071193695e-02 0.0000000000000000e+00  -1.5162999741733074e-02 -6.9416999816894531e-02 0.0000000000000000e+00  -1.3949999585747719e-02 -6.9507002830505371e-02 0.0000000000000000e+00  1.4355000108480453e-02 -5.1375001668930054e-02 0.0000000000000000e+00  -1.1276900023221970e-01 -8.8503003120422363e-02 0.0000000000000000e+00  -1.0019499808549881e-01 -7.3709003627300262e-02 0.0000000000000000e+00  -1.1819600313901901e-01 -9.4585001468658447e-02 0.0000000000000000e+00  -5.9755999594926834e-02 -6.7616000771522522e-02 0.0000000000000000e+00  -7.1465998888015747e-02 -7.7676996588706970e-02 0.0000000000000000e+00  -5.8152999728918076e-02 -6.0849998146295547e-02 0.0000000000000000e+00  -6.8782001733779907e-02 -8.3765998482704163e-02 0.0000000000000000e+00  1.6319999704137444e-03 -5.3999997908249497e-04 0.0000000000000000e+00  2.9509998857975006e-03 -5.6000001495704055e-04 0.0000000000000000e+00  2.1470000501722097e-03 -9.8500004969537258e-04 0.0000000000000000e+00  1.1289999820291996e-03 -1.6159999649971724e-03 0.0000000000000000e+00  9.7799999639391899e-04 -9.3699997523799539e-04 0.0000000000000000e+00  3.6480000708252192e-03 -1.1119999689981341e-03 0.0000000000000000e+00  4.6970001421868801e-03 -5.8499997248873115e-04 0.0000000000000000e+00  6.7879999987781048e-03 -6.5100000938400626e-04 0.0000000000000000e+00  5.4750000126659870e-03 -1.2629999546334147e-03 0.0000000000000000e+00  1.9640000537037849e-03 -3.6100001307204366e-04 0.0000000000000000e+00  9.3890000134706497e-03 -4.8719998449087143e-03 0.0000000000000000e+00  6.8000000901520252e-03 -3.0219999607652426e-03 0.0000000000000000e+00  5.3710001520812511e-03 -2.5460000615566969e-03 0.0000000000000000e+00  2.1269998978823423e-03 -2.9699999140575528e-04 0.0000000000000000e+00  2.3449999280273914e-03 -2.8000000747852027e-04 0.0000000000000000e+00  1.3524999842047691e-02 -3.6000001273350790e-05 0.0000000000000000e+00  1.0662999935448170e-02 -1.8699999782256782e-04 0.0000000000000000e+00  1.2787000276148319e-02 -6.8599998485296965e-04 0.0000000000000000e+00  1.1390999890863895e-02 1.7200000002048910e-04 0.0000000000000000e+00  8.8539998978376389e-03 2.4900000425986946e-04 0.0000000000000000e+00  1.1163000017404556e-02 1.5900000289548188e-04 0.0000000000000000e+00  3.3727999776601791e-02 5.6844998151063919e-02 0.0000000000000000e+00  3.3266000449657440e-02 5.8295000344514847e-02 0.0000000000000000e+00  -2.7437999844551086e-02 -2.7437999844551086e-02 0.0000000000000000e+00  3.6961000412702560e-02 5.1532998681068420e-02 0.0000000000000000e+00  3.5629000514745712e-02 4.8222001641988754e-02 0.0000000000000000e+00  3.6920998245477676e-02 5.1573999226093292e-02 0.0000000000000000e+00  -3.0222000554203987e-02 -9.2099998146295547e-03 0.0000000000000000e+00  -3.2664999365806580e-02 2.3600000422447920e-03 0.0000000000000000e+00  -2.4400999769568443e-02 2.6670000515878201e-03 0.0000000000000000e+00  -3.5064999014139175e-02 -2.0314000546932220e-02 0.0000000000000000e+00  -3.9179999381303787e-02 -6.6439998336136341e-03 0.0000000000000000e+00  -8.9437000453472137e-02 -7.1763001382350922e-02 0.0000000000000000e+00  -1.0232499986886978e-01 -8.6704999208450317e-02 0.0000000000000000e+00  -7.5652003288269043e-02 -6.5108001232147217e-02 0.0000000000000000e+00  -8.8266998529434204e-02 -7.9897999763488770e-02 0.0000000000000000e+00  2.2029999643564224e-02 4.4459998607635498e-02 0.0000000000000000e+00  2.0562000572681427e-02 4.1730001568794250e-02 0.0000000000000000e+00  1.8462000414729118e-02 4.4608999043703079e-02 0.0000000000000000e+00  -1.4127000235021114e-02 -5.6416999548673630e-02 0.0000000000000000e+00  3.6407999694347382e-02 4.4332999736070633e-02 0.0000000000000000e+00  -1.9408000633120537e-02 -5.5907998234033585e-02 0.0000000000000000e+00  -1.9138999283313751e-02 -5.5907998234033585e-02 0.0000000000000000e+00  -5.4310999810695648e-02 -1.8318999558687210e-02 0.0000000000000000e+00  -6.6010996699333191e-02 -3.3119998872280121e-02 0.0000000000000000e+00  -4.2637001723051071e-02 -1.2777999974787235e-02 0.0000000000000000e+00  -4.3815001845359802e-02 -5.7569998316466808e-03 0.0000000000000000e+00  -6.0316000133752823e-02 -2.4145999923348427e-02 0.0000000000000000e+00  -4.9392998218536377e-02 -1.1633999645709991e-02 0.0000000000000000e+00  9.9269999191164970e-03 4.1154999285936356e-02 0.0000000000000000e+00  2.0417999476194382e-02 4.6787999570369720e-02 0.0000000000000000e+00  1.4020999893546104e-02 4.5007001608610153e-02 0.0000000000000000e+00  -1.4697000384330750e-02 2.1805999800562859e-02 0.0000000000000000e+00  -7.3509998619556427e-03 2.8704000636935234e-02 0.0000000000000000e+00  -2.4701999500393867e-02 1.6133999451994896e-02 0.0000000000000000e+00  -2.4771100282669067e-01 -5.3658999502658844e-02 0.0000000000000000e+00  -2.3935499787330627e-01 -3.7043001502752304e-02 0.0000000000000000e+00  -2.4199900031089783e-01 -5.1918998360633850e-02 0.0000000000000000e+00  -7.9212002456188202e-02 -6.6992998123168945e-02 0.0000000000000000e+00  -6.0481000691652298e-02 -4.7761999070644379e-02 0.0000000000000000e+00  -7.1958996355533600e-02 -4.0447998791933060e-02 0.0000000000000000e+00  -3.0219999607652426e-03 -8.3109997212886810e-03 0.0000000000000000e+00  -3.0219999607652426e-03 -8.7719997391104698e-03 0.0000000000000000e+00  -3.0219999607652426e-03 -7.5860000215470791e-03 0.0000000000000000e+00  -3.0219999607652426e-03 -6.8299998529255390e-03 0.0000000000000000e+00  -3.0219999607652426e-03 -3.7779998965561390e-03 0.0000000000000000e+00  9.7549995407462120e-03 -2.2670000325888395e-03 0.0000000000000000e+00  -2.7749999426305294e-03 -3.2830000855028629e-03 0.0000000000000000e+00  1.1576999910175800e-02 -2.1679999772459269e-03 0.0000000000000000e+00  1.1551000177860260e-02 -3.8079998921602964e-03 0.0000000000000000e+00  1.3047000393271446e-02 -2.8599998913705349e-03 0.0000000000000000e+00  1.7790000885725021e-02 -1.1249999515712261e-03 0.0000000000000000e+00  1.5413999557495117e-02 -2.6169999036937952e-03 0.0000000000000000e+00  1.5729999169707298e-02 -2.8009999077767134e-03 0.0000000000000000e+00  1.3767000287771225e-02 -4.2550000362098217e-03 0.0000000000000000e+00  1.5192000195384026e-02 -2.9110000468790531e-03 0.0000000000000000e+00  1.3538000173866749e-02 -3.8499999791383743e-03 0.0000000000000000e+00  1.7319999635219574e-02 -1.1719999602064490e-03 0.0000000000000000e+00  1.3842999935150146e-02 -1.5360000543296337e-03 0.0000000000000000e+00  1.5593999996781349e-02 -2.6100000832229853e-04 0.0000000000000000e+00  1.6832999885082245e-02 -6.8300002021715045e-04 0.0000000000000000e+00  8.7759997695684433e-03 -6.4509999938309193e-03 0.0000000000000000e+00  3.7758000195026398e-02 3.0950000509619713e-03 0.0000000000000000e+00  3.3022999763488770e-02 4.4940002262592316e-03 0.0000000000000000e+00  3.7806000560522079e-02 8.0859996378421783e-03 0.0000000000000000e+00  5.4774999618530273e-02 1.4577999711036682e-02 0.0000000000000000e+00  5.9546999633312225e-02 1.4608999714255333e-02 0.0000000000000000e+00  5.2696000784635544e-02 1.5430999919772148e-02 0.0000000000000000e+00  3.7229999434202909e-03 -8.0530000850558281e-03 0.0000000000000000e+00  -1.5722999349236488e-02 -1.5085999853909016e-02 0.0000000000000000e+00  -1.4960999600589275e-02 -1.5591000206768513e-02 0.0000000000000000e+00  -1.6890000551939011e-03 -1.0795000009238720e-02 0.0000000000000000e+00  -3.0219999607652426e-03 -9.2700002714991570e-03 0.0000000000000000e+00  -3.0219999607652426e-03 -9.8219998180866241e-03 0.0000000000000000e+00  3.1615998595952988e-02 4.2865000665187836e-02 0.0000000000000000e+00  2.9494000598788261e-02 3.8826998323202133e-02 0.0000000000000000e+00  3.1106000766158104e-02 4.1281998157501221e-02 0.0000000000000000e+00  3.3309999853372574e-02 4.5628998428583145e-02 0.0000000000000000e+00  1.3191799819469452e-01 1.3282999396324158e-01 0.0000000000000000e+00  1.3005200028419495e-01 1.4000000059604645e-01 0.0000000000000000e+00  1.2815800309181213e-01 1.3916100561618805e-01 0.0000000000000000e+00  2.7791000902652740e-02 3.2717000693082809e-02 0.0000000000000000e+00  -1.1332999914884567e-02 -2.0676000043749809e-02 0.0000000000000000e+00  -1.1332999914884567e-02 -2.0921999588608742e-02 0.0000000000000000e+00  2.8604999184608459e-02 5.2320998162031174e-02 0.0000000000000000e+00  -1.1332999914884567e-02 -2.1910000592470169e-02 0.0000000000000000e+00  -1.1332999914884567e-02 -2.1910000592470169e-02 0.0000000000000000e+00  4.6461001038551331e-02 8.7720997631549835e-02 0.0000000000000000e+00  5.6214999407529831e-02 9.8292998969554901e-02 0.0000000000000000e+00  4.7247998416423798e-02 8.3608001470565796e-02 0.0000000000000000e+00  4.7959998250007629e-02 8.0197997391223907e-02 0.0000000000000000e+00  3.7432000041007996e-02 6.8553000688552856e-02 0.0000000000000000e+00  5.7693999260663986e-02 9.4668000936508179e-02 0.0000000000000000e+00  6.6072002053260803e-02 1.0818299651145935e-01 0.0000000000000000e+00  5.9167999774217606e-02 9.1741003096103668e-02 0.0000000000000000e+00  6.1516001820564270e-02 8.9406996965408325e-02 0.0000000000000000e+00  6.9964997470378876e-02 1.0200800001621246e-01 0.0000000000000000e+00  7.3669999837875366e-02 9.8720997571945190e-02 0.0000000000000000e+00  3.7999000400304794e-02 5.5702999234199524e-02 0.0000000000000000e+00  3.9023000746965408e-02 6.1413001269102097e-02 0.0000000000000000e+00  3.7889998406171799e-02 5.8807998895645142e-02 0.0000000000000000e+00  3.8492999970912933e-02 6.5210998058319092e-02 0.0000000000000000e+00  -4.7670002095401287e-03 -2.0112000405788422e-02 0.0000000000000000e+00  -5.0200000405311584e-03 -2.0617000758647919e-02 0.0000000000000000e+00  -1.8597999587655067e-02 -1.1121000163257122e-02 0.0000000000000000e+00  -1.7038999125361443e-02 -9.7629996016621590e-03 0.0000000000000000e+00  8.0296002328395844e-02 1.1086499691009521e-01 0.0000000000000000e+00  1.1181800067424774e-01 1.3705399632453918e-01 0.0000000000000000e+00  1.1413799971342087e-01 1.4087699353694916e-01 0.0000000000000000e+00  1.1731900274753571e-01 1.3629999756813049e-01 0.0000000000000000e+00  1.0911399871110916e-01 1.4108100533485413e-01 0.0000000000000000e+00  6.3559003174304962e-02 1.1186700314283371e-01 0.0000000000000000e+00  4.2950000613927841e-02 2.3491999134421349e-02 0.0000000000000000e+00  4.8014998435974121e-02 2.5770999491214752e-02 0.0000000000000000e+00  3.4650001674890518e-02 1.7880000174045563e-02 0.0000000000000000e+00  1.3890400528907776e-01 6.4754001796245575e-02 0.0000000000000000e+00  1.4365600049495697e-01 6.2743999063968658e-02 0.0000000000000000e+00  1.3487499952316284e-01 5.9271000325679779e-02 0.0000000000000000e+00  1.3987000286579132e-01 5.7417001575231552e-02 0.0000000000000000e+00  1.4833000302314758e-01 6.0630999505519867e-02 0.0000000000000000e+00  1.3457399606704712e-01 5.1995001733303070e-02 0.0000000000000000e+00  1.2986600399017334e-01 5.3599998354911804e-02 0.0000000000000000e+00  1.4782999455928802e-01 6.7514002323150635e-02 0.0000000000000000e+00  1.4099000021815300e-02 -5.1885999739170074e-02 0.0000000000000000e+00  -1.6586000099778175e-02 -7.0538997650146484e-02 0.0000000000000000e+00  1.3864999637007713e-02 -5.2354000508785248e-02 0.0000000000000000e+00  -1.9167000427842140e-02 -8.3044998347759247e-02 0.0000000000000000e+00  -2.0715000107884407e-02 -8.4811002016067505e-02 0.0000000000000000e+00  -2.5906000286340714e-02 -1.0035199671983719e-01 0.0000000000000000e+00  -2.4660000577569008e-02 -8.9386001229286194e-02 0.0000000000000000e+00  -2.8370000422000885e-02 -1.1348500102758408e-01 0.0000000000000000e+00  -3.1722001731395721e-02 -1.1604899913072586e-01 0.0000000000000000e+00  -2.9715999960899353e-02 -1.0350699722766876e-01 0.0000000000000000e+00  1.4618000015616417e-02 -5.1111001521348953e-02 0.0000000000000000e+00  -5.8779001235961914e-02 -5.4535999894142151e-02 0.0000000000000000e+00  -4.8154998570680618e-02 -4.6305000782012939e-02 0.0000000000000000e+00  7.5599999399855733e-04 2.7073999866843224e-02 0.0000000000000000e+00  5.2470001392066479e-03 2.6884999126195908e-02 0.0000000000000000e+00  -3.8409999106079340e-03 2.2562000900506973e-02 0.0000000000000000e+00  1.3239999534562230e-03 2.1867999807000160e-02 0.0000000000000000e+00  -8.3659999072551727e-03 1.6915999352931976e-02 0.0000000000000000e+00  1.4991000294685364e-02 4.1606999933719635e-02 0.0000000000000000e+00  1.0974000208079815e-02 4.0770001709461212e-02 0.0000000000000000e+00  1.5011000446975231e-02 4.4094998389482498e-02 0.0000000000000000e+00  -1.0568600147962570e-01 -8.0747000873088837e-02 0.0000000000000000e+00  -1.6631799936294556e-01 -1.9697499275207520e-01 0.0000000000000000e+00  -1.7498700320720673e-01 -2.0603799819946289e-01 0.0000000000000000e+00  -1.7015300691127777e-01 -1.9336199760437012e-01 0.0000000000000000e+00  -1.7492899298667908e-01 -1.8990199267864227e-01 0.0000000000000000e+00  -1.7837500572204590e-01 -2.0291699469089508e-01 0.0000000000000000e+00  -1.1994100362062454e-01 -1.7525400221347809e-01 0.0000000000000000e+00  -1.1064399778842926e-01 -1.7903800308704376e-01 0.0000000000000000e+00  -1.2032599747180939e-01 -1.8900999426841736e-01 0.0000000000000000e+00  -1.2971399724483490e-01 -1.9825200736522675e-01 0.0000000000000000e+00  -1.2162099778652191e-01 -2.0162700116634369e-01 0.0000000000000000e+00  -8.0788999795913696e-02 -9.4949997961521149e-02 0.0000000000000000e+00  -8.8907003402709961e-02 -1.1262799799442291e-01 0.0000000000000000e+00  -7.6647996902465820e-02 -1.0057800263166428e-01 0.0000000000000000e+00  -6.4880996942520142e-02 -8.8936999440193176e-02 0.0000000000000000e+00  -2.8115000575780869e-02 -9.1096997261047363e-02 0.0000000000000000e+00  -2.4272000417113304e-02 -6.8402998149394989e-02 0.0000000000000000e+00  -2.6962000876665115e-02 -6.8020999431610107e-02 0.0000000000000000e+00  1.0761000216007233e-02 -5.8510000817477703e-03 0.0000000000000000e+00  1.2087999843060970e-02 -6.8000000901520252e-03 0.0000000000000000e+00  1.3319999910891056e-02 -7.6799998059868813e-03 0.0000000000000000e+00  1.4647999778389931e-02 -8.6279995739459991e-03 0.0000000000000000e+00  4.4299999717622995e-04 -1.2870000209659338e-03 0.0000000000000000e+00  5.5680000223219395e-03 -1.9999999494757503e-04 0.0000000000000000e+00  7.9049998894333839e-03 -2.0700000459328294e-04 0.0000000000000000e+00  3.5399999469518661e-03 -2.4600001052021980e-04 0.0000000000000000e+00  8.0559998750686646e-03 -3.9189998060464859e-03 0.0000000000000000e+00  -1.2339999666437507e-03 -1.2339999666437507e-03 0.0000000000000000e+00  4.2659998871386051e-03 -8.4200000856071711e-04 0.0000000000000000e+00  -7.5599999399855733e-04 -7.5599999399855733e-04 0.0000000000000000e+00  -1.7239999724552035e-03 -1.7239999724552035e-03 0.0000000000000000e+00  8.7820002809166908e-03 1.1700000322889537e-04 0.0000000000000000e+00  1.3788999989628792e-02 2.4600001052021980e-04 0.0000000000000000e+00  1.5708999708294868e-02 3.1699999817647040e-04 0.0000000000000000e+00  1.3043999671936035e-02 1.8000000636675395e-05 0.0000000000000000e+00  3.2393999397754669e-02 -7.8699999721720815e-04 0.0000000000000000e+00  3.7050001323223114e-02 -3.4729999024420977e-03 0.0000000000000000e+00  3.0755000188946724e-02 -7.7399997971951962e-03 0.0000000000000000e+00  1.7574999481439590e-02 -9.5999997574836016e-04 0.0000000000000000e+00  2.1329000592231750e-02 4.3799998238682747e-03 0.0000000000000000e+00  2.4059999734163284e-02 7.3440000414848328e-03 0.0000000000000000e+00  2.4759000167250633e-02 6.8600000813603401e-03 0.0000000000000000e+00  2.0159000530838966e-02 4.5199999585747719e-03 0.0000000000000000e+00  1.8268000334501266e-02 1.8360000103712082e-03 0.0000000000000000e+00  2.7217999100685120e-02 9.9219996482133865e-03 0.0000000000000000e+00  3.1032999977469444e-02 1.2152999639511108e-02 0.0000000000000000e+00  3.0965000391006470e-02 1.1915000155568123e-02 0.0000000000000000e+00  3.1734000891447067e-02 4.2045999318361282e-02 0.0000000000000000e+00  2.9767999425530434e-02 3.8952000439167023e-02 0.0000000000000000e+00  3.1706999987363815e-02 4.1891001164913177e-02 0.0000000000000000e+00  3.6022998392581940e-02 6.2586002051830292e-02 0.0000000000000000e+00  3.6387998610734940e-02 5.8781001716852188e-02 0.0000000000000000e+00  3.6715000867843628e-02 6.6000998020172119e-02 0.0000000000000000e+00  3.4586999565362930e-02 1.1164200305938721e-01 0.0000000000000000e+00  3.2917998731136322e-02 1.2265700101852417e-01 0.0000000000000000e+00  3.6164000630378723e-02 1.1857999861240387e-01 0.0000000000000000e+00  -2.7197999879717827e-02 -2.7197999879717827e-02 0.0000000000000000e+00  3.7588998675346375e-02 5.7363998144865036e-02 0.0000000000000000e+00  3.7206001579761505e-02 5.9916000813245773e-02 0.0000000000000000e+00  3.8320999592542648e-02 6.1755001544952393e-02 0.0000000000000000e+00  3.8639001548290253e-02 5.8977000415325165e-02 0.0000000000000000e+00  3.7719000130891800e-02 5.5560998618602753e-02 0.0000000000000000e+00  3.7714000791311264e-02 5.3764000535011292e-02 0.0000000000000000e+00  3.8035999983549118e-02 7.2195999324321747e-02 0.0000000000000000e+00  3.7702001631259918e-02 6.9421000778675079e-02 0.0000000000000000e+00  3.6672998219728470e-02 7.7122002840042114e-02 0.0000000000000000e+00  3.6837000399827957e-02 7.3873996734619141e-02 0.0000000000000000e+00  3.7551999092102051e-02 5.3334999829530716e-02 0.0000000000000000e+00  3.8334000855684280e-02 5.5596999824047089e-02 0.0000000000000000e+00  3.9292998611927032e-02 6.0228001326322556e-02 0.0000000000000000e+00  3.9154998958110809e-02 6.4390003681182861e-02 0.0000000000000000e+00  3.8934998214244843e-02 7.0459000766277313e-02 0.0000000000000000e+00  3.9055000990629196e-02 6.9023996591567993e-02 0.0000000000000000e+00  3.8865998387336731e-02 5.7950999587774277e-02 0.0000000000000000e+00  -4.3490998446941376e-02 -4.3448001146316528e-02 0.0000000000000000e+00  -4.6298999339342117e-02 -5.3706001490354538e-02 0.0000000000000000e+00  -5.2306998521089554e-02 -4.4512998312711716e-02 0.0000000000000000e+00  -4.8441998660564423e-02 -1.0816000401973724e-02 0.0000000000000000e+00  -4.1584998369216919e-02 -1.9147999584674835e-02 0.0000000000000000e+00  -4.8301000148057938e-02 -2.4460000917315483e-02 0.0000000000000000e+00  -3.9508998394012451e-02 -3.1989999115467072e-02 0.0000000000000000e+00  -6.4879000186920166e-02 -4.1239999234676361e-02 0.0000000000000000e+00  -4.0718000382184982e-02 -2.0354999229311943e-02 0.0000000000000000e+00  -5.3433001041412354e-02 -2.6645999401807785e-02 0.0000000000000000e+00  -7.7862001955509186e-02 -4.7554999589920044e-02 0.0000000000000000e+00  -1.1706300079822540e-01 -9.4012998044490814e-02 0.0000000000000000e+00  -1.4409199357032776e-01 -1.3190099596977234e-01 0.0000000000000000e+00  -1.5680900216102600e-01 -1.3846600055694580e-01 0.0000000000000000e+00  -1.715379953384