<?xml version="1.0"?>
<VTKFile type="UnstructuredGrid"  version="0.1"  >
<UnstructuredGrid>
<Piece  NumberOfPoints="6340" NumberOfCells="12376">
<Points>
<DataArray  type="Float64"  NumberOfComponents="3"  format="ascii">-0.01957700029015541 0.02074499987065792 0  -0.02036399953067303 0.02145300060510635 0  -0.02057000063359737 0.02044999971985817 0  -0.0212200004607439 0.02128300070762634 0  -0.01979199983179569 0.01981999911367893 0  -0.01943900063633919 0.0216279998421669 0  -0.02002499997615814 0.02241400070488453 0  -0.01954399980604649 0.02321700006723404 0  -0.02058099955320358 0.02324100024998188 0  -0.01896099932491779 0.02234599925577641 0  -0.007859000004827976 0.01811300031840801 0  -0.008545000106096268 0.01894699968397617 0  -0.008871999569237232 0.01800600066781044 0  -0.009565999731421471 0.01888000033795834 0  -0.02587799914181232 0.0787540003657341 0  -0.02681099995970726 0.07930000126361847 0  -0.02698799967765808 0.07851699739694595 0  -0.02643699944019318 0.07216300070285797 0  -0.02706200070679188 0.07296799868345261 0  -0.02726400084793568 0.07208400219678879 0  -0.02800000086426735 0.07260999828577042 0  -0.01191200036555529 0.08931999653577805 0  -0.01281700003892183 0.08928900212049484 0  -0.01230600010603666 0.08850199729204178 0  -0.01970900036394596 0.08417099714279175 0  -0.01870100013911724 0.08421500027179718 0  -0.01915699988603592 0.08501499891281128 0  -0.01925499923527241 0.0833669975399971 0  -0.02252699993550777 0.0249869991093874 0  -0.0215659998357296 0.02496599964797497 0  -0.022019999101758 0.0258530005812645 0  -0.02242800034582615 0.02674400061368942 0  -0.02300000004470348 0.02588899992406368 0  -0.02105000056326389 0.02583600021898746 0  -0.02057499997317791 0.02494500018656254 0  -0.01956799998879433 0.0249210000038147 0  -0.02005999907851219 0.02580700069665909 0  -0.02206600084900856 0.02407700009644032 0  -0.02311999909579754 0.02416699938476086 0  -0.0224200002849102 0.02281999960541725 0  -0.02183699980378151 0.02207300066947937 0  -0.02157800085842609 0.02316899970173836 0  -0.02096899971365929 0.02231799997389317 0  -0.01604400016367435 0.02196500077843666 0  -0.01656300015747547 0.02108399942517281 0  -0.01550399977713823 0.02107599936425686 0  -0.01703000068664551 0.02207200042903423 0  -0.01803999952971935 0.0221170000731945 0  -0.0175429992377758 0.02299199998378754 0  0.04009599983692169 0.08246300369501114 0  0.03992199897766113 0.08158999681472778 0  0.0411360003054142 0.08186499774456024 0  0.04119699820876122 0.09365800023078918 0  0.04191400110721588 0.09402699768543243 0  0.04089900106191635 0.09453199803829193 0  0.02456500008702278 0.1026590019464493 0  0.02473600022494793 0.1017469987273216 0  0.02556400001049042 0.1021620035171509 0  0.0236469991505146 0.1031159982085228 0  0.02381299994885921 0.1020099967718124 0  -0.006568000186234713 0.09741900116205215 0  -0.00570600014179945 0.09750399738550186 0  -0.006275000050663948 0.09827800095081329 0  -0.005400999914854765 0.09837199747562408 0  -0.01703000068664551 0.09865699708461761 0  -0.0173799991607666 0.09796600043773651 0  -0.01637100055813789 0.09807500243186951 0  -0.01793700084090233 0.09884200245141983 0  -0.01391199976205826 0.1043630018830299 0  -0.01416699960827827 0.1052170023322105 0  -0.01464399974793196 0.1045249998569489 0  -0.01006999984383583 0.0965299978852272 0  -0.009263999760150909 0.09653399884700775 0  -0.009825999848544598 0.09732100367546082 0  -0.01088100019842386 0.09652499854564667 0  -0.01031799986958504 0.09573999792337418 0  -0.01112900022417307 0.09573700278997421 0  -0.01337500009685755 0.09882999956607819 0  -0.01389900036156178 0.0995820015668869 0  -0.01422599982470274 0.09880899637937546 0  -0.01225899998098612 0.0972990021109581 0  -0.01309899985790253 0.09729199856519699 0  -0.01252800039947033 0.09651300311088562 0  0.01113300025463104 0.09397999942302704 0  0.01209400035440922 0.09394499659538269 0  0.01152699999511242 0.09478600323200226 0  0.007495999801903963 0.07851699739694595 0  0.008051999844610691 0.07766599953174591 0  0.008456000126898289 0.07848100364208221 0  -0.007559999823570251 0.01724000088870525 0  -0.006736000068485737 0.01747200079262257 0  -0.008435999974608421 0.01710899919271469 0  -0.009349999949336052 0.01697199977934361 0  -0.01305000018328428 0.0168600007891655 0  -0.01332100015133619 0.01794200018048286 0  -0.01393800042569637 0.01704699918627739 0  -0.01248000003397465 0.01776400022208691 0  -0.01251200027763844 0.01878999918699265 0  -0.01164800021797419 0.01795000024139881 0  -0.01206200011074543 0.02171799913048744 0  -0.0125500001013279 0.02076099999248981 0  -0.01159000024199486 0.0208090003579855 0  -0.01111199986189604 0.01995900087058544 0  -0.0105579998344183 0.02080699987709522 0  -0.01207400020211935 0.01980900019407272 0  -0.01303800009191036 0.02172799967229366 0  -0.01450099982321262 0.02094700001180172 0  -0.01501599978655577 0.02191299945116043 0  -0.0140190003439784 0.021807000041008 0  -0.009053000248968601 0.01982999965548515 0  -0.0110080000013113 0.03071199916303158 0  -0.01152000017464161 0.02984100021421909 0  -0.01049800030887127 0.02979400008916855 0  -0.005427999887615442 0.02953499928116798 0  -0.005929999984800816 0.0304579995572567 0  -0.006436000112444162 0.02958899922668934 0  -0.008077999576926231 0.01990900002419949 0  -0.005563999991863966 0.01939900033175945 0  -0.006552000064402819 0.01922100037336349 0  -0.005766999907791615 0.0185529999434948 0  -0.00584599981084466 0.01772299967706203 0  -0.004860000219196081 0.01799999922513962 0  0.04322699829936028 0.08975599706172943 0  0.04412399977445602 0.08930999785661697 0  0.04371500015258789 0.09039200097322464 0  0.04269599914550781 0.09051699936389923 0  0.01645700074732304 0.05931299924850464 0  0.01748399995267391 0.05925200134515762 0  0.01700299978256226 0.06012900173664093 0  0.03014699928462505 0.04479999840259552 0  0.03063100017607212 0.04376500099897385 0  0.03108200058341026 0.04451199993491173 0  0.03211800009012222 0.04904799908399582 0  0.03302299976348877 0.04840299859642982 0  0.03333000093698502 0.04914899915456772 0  0.03175799921154976 0.05244899913668633 0  0.03083699941635132 0.05251500010490417 0  0.03138399869203568 0.05160199850797653 0  0.03098800033330917 0.05077999830245972 0  0.0319719985127449 0.05069300159811974 0  0.03042699955403805 0.05167900025844574 0  0.02988900057971478 0.05258100107312202 0  0.02998599968850613 0.05088099837303162 0  0.0294829998165369 0.05010199919342995 0  0.02897799946367741 0.05096599832177162 0  0.02845899946987629 0.05017299950122833 0  0.04065699875354767 0.09208200126886368 0  0.03965999931097031 0.09212099760770798 0  0.04023800045251846 0.09129399806261063 0  0.03926299884915352 0.09130100160837173 0  0.008321000263094902 0.02491999976336956 0  0.009084999561309814 0.02540400065481663 0  0.008322999812662601 0.02598400041460991 0  0.009157000109553337 0.0263650007545948 0  0.02796499989926815 0.05103899911046028 0  0.02394399978220463 0.05296099931001663 0  0.0234570000320673 0.05383599922060966 0  0.02291899919509888 0.0530100017786026 0  0.02447099983692169 0.05378299951553345 0  0.03032599948346615 0.05341200157999992 0  0.01929499953985214 0.03609199821949005 0  0.01839799992740154 0.03594100102782249 0  0.01882600039243698 0.03506400063633919 0  0.01371399965137243 0.04119599983096123 0  0.01276300009340048 0.04117999970912933 0  0.01323799975216389 0.04030700027942657 0  0.01228700019419193 0.04029300063848495 0  0.01181199960410595 0.04116500169038773 0  0.01180799957364798 0.03940200060606003 0  0.01276199985295534 0.0394200012087822 0  0.01324000023305416 0.04206899926066399 0  -0.02788200043141842 0.07346999645233154 0  -0.02678100019693375 0.07377699762582779 0  -0.02777300029993057 0.07425600290298462 0  -0.02609599940478802 0.07304000109434128 0  -0.025713000446558 0.07385099679231644 0  -0.02467899955809116 0.07392799854278564 0  -0.02516400068998337 0.07469700276851654 0  -0.02409500069916248 0.07316599786281586 0  -0.02366399951279163 0.07399000227451324 0  -0.02418800070881844 0.07475999742746353 0  -0.02808699943125248 0.07171600311994553 0  -0.01860300078988075 0.08585000038146973 0  -0.01961099915206432 0.08581099659204483 0  -0.01740399934351444 0.0947749987244606 0  -0.018308000639081 0.09478399902582169 0  -0.01777400076389313 0.09398499876260757 0  -0.018673000857234 0.09399800002574921 0  -0.01815400086343288 0.093190997838974 0  -0.01650900021195412 0.09729500114917755 0  -0.01566999964416027 0.09730400145053864 0  -0.01545699965208769 0.09807900339365005 0  -0.01323700044304132 0.088468998670578 0  -0.01131500024348497 0.08206900209188461 0  -0.01031100004911423 0.08211299777030945 0  -0.01076900027692318 0.08291099965572357 0  -0.01024799980223179 0.08374500274658203 0  -0.00977999996393919 0.08295100182294846 0  -0.01542500033974648 0.08020500093698502 0  -0.01594999991357327 0.07934600114822388 0  -0.01495399978011847 0.07939500361680984 0  -0.0139570003375411 0.0794449970126152 0  -0.014465999789536 0.07858800143003464 0  -0.01824799925088882 0.08341199904680252 0  -0.01779799908399582 0.08259999752044678 0  -0.01880400069057941 0.08254999667406082 0  -0.01981200091540813 0.08250299841165543 0  -0.02474099956452847 0.07553800195455551 0  -0.02526699937880039 0.07796499878168106 0  -0.02483700029551983 0.07880699634552002 0  -0.02349100075662136 0.02487999945878983 0  -0.02384999953210354 0.02556999959051609 0  -0.02409899979829788 0.02624800056219101 0  -0.02436799928545952 0.02697799913585186 0  -0.02337099984288216 0.02681500092148781 0  -0.02007300034165382 0.02407599985599518 0  -0.01905700005590916 0.02404000051319599 0  -0.02109299972653389 0.02408000081777573 0  -0.02276000007987022 0.02347300015389919 0  -0.01750300079584122 0.01824299991130829 0  -0.01712100021541119 0.01900799944996834 0  -0.01830999925732613 0.01861999928951263 0  -0.01667499914765358 0.01785700023174286 0  -0.01850900053977966 0.02314200066030025 0  -0.016538999974727
[...]
<PointData  Vectors="velocity"> 
<DataArray  type="Float64"  Name="velocity"  NumberOfComponents="3" format="ascii">5.0000002374872565e-04 4.8200000310316682e-04 0.0000000000000000e+00  3.1400000443682075e-04 3.1699999817647040e-04 0.0000000000000000e+00  -7.5599999399855733e-04 2.2670000325888395e-03 0.0000000000000000e+00  -1.2860000133514404e-03 3.0630000401288271e-03 0.0000000000000000e+00  -4.9499998567625880e-04 1.7460000235587358e-03 0.0000000000000000e+00  9.2999998014420271e-04 8.6799997370690107e-04 0.0000000000000000e+00  6.9299997994676232e-04 6.8100000498816371e-04 0.0000000000000000e+00  9.8400004208087921e-04 9.7400002414360642e-04 0.0000000000000000e+00  3.9299999480135739e-04 4.6499999007210135e-04 0.0000000000000000e+00  1.4590000500902534e-03 1.3200000394135714e-03 0.0000000000000000e+00  -5.4649999365210533e-03 1.6009999671950936e-03 0.0000000000000000e+00  1.3070000568404794e-03 5.4999999701976776e-03 0.0000000000000000e+00  -3.1159999780356884e-03 2.6869999710470438e-03 0.0000000000000000e+00  3.4600000362843275e-03 6.3550001941621304e-03 0.0000000000000000e+00  -2.3219999857246876e-03 6.8879998289048672e-03 0.0000000000000000e+00  1.1332999914884567e-02 3.7774998694658279e-02 0.0000000000000000e+00  1.1332999914884567e-02 3.7774998694658279e-02 0.0000000000000000e+00  -5.0099997315555811e-04 2.7230000123381615e-03 0.0000000000000000e+00  -1.7369999550282955e-03 6.5990001894533634e-03 0.0000000000000000e+00  -8.4799999604001641e-04 7.8360000625252724e-03 0.0000000000000000e+00  9.0659996494650841e-03 3.4752998501062393e-02 0.0000000000000000e+00  -4.9439001828432083e-02 -3.9379000663757324e-02 0.0000000000000000e+00  -4.3745998293161392e-02 -3.1608998775482178e-02 0.0000000000000000e+00  -5.3160000592470169e-02 -4.0787000209093094e-02 0.0000000000000000e+00  -2.4165999144315720e-02 -1.3701000250875950e-02 0.0000000000000000e+00  -3.0426999554038048e-02 -2.0990999415516853e-02 0.0000000000000000e+00  -2.6226999238133430e-02 -1.2786000035703182e-02 0.0000000000000000e+00  -2.7577999979257584e-02 -2.1913999691605568e-02 0.0000000000000000e+00  -3.0499999411404133e-04 9.0000003183376975e-06 0.0000000000000000e+00  -4.2500000563450158e-04 -6.0000002122251317e-06 0.0000000000000000e+00  -8.0099998740479350e-04 -9.7999996796716005e-05 0.0000000000000000e+00  -1.2969999806955457e-03 -1.9599999359343201e-04 0.0000000000000000e+00  -5.7500001275911927e-04 -4.5000000682193786e-05 0.0000000000000000e+00  -9.2999998014420271e-04 -7.5999996624886990e-05 0.0000000000000000e+00  -2.5000001187436283e-04 2.1899999410379678e-04 0.0000000000000000e+00  1.8200000340584666e-04 6.1599997570738196e-04 0.0000000000000000e+00  -7.7300000702962279e-04 1.3600000238511711e-04 0.0000000000000000e+00  -1.1899999663000926e-04 4.6000001020729542e-05 0.0000000000000000e+00  -2.6360000483691692e-03 5.2729998715221882e-03 0.0000000000000000e+00  -2.2670000325888395e-03 4.5329998247325420e-03 0.0000000000000000e+00  -1.7900000093504786e-03 3.8189999759197235e-03 0.0000000000000000e+00  9.0000001364387572e-05 1.6399999731220305e-04 0.0000000000000000e+00  2.4199999461416155e-04 2.6900001103058457e-04 0.0000000000000000e+00  5.2240001969039440e-03 4.2110001668334007e-03 0.0000000000000000e+00  4.1979998350143433e-03 3.4439999144524336e-03 0.0000000000000000e+00  5.9750000946223736e-03 4.7940001823008060e-03 0.0000000000000000e+00  3.6319999489933252e-03 3.0000000260770321e-03 0.0000000000000000e+00  2.3399998899549246e-03 2.0149999763816595e-03 0.0000000000000000e+00  2.8639999218285084e-03 2.4339999072253704e-03 0.0000000000000000e+00  3.9606001228094101e-02 9.1426998376846313e-02 0.0000000000000000e+00  3.7438001483678818e-02 9.1259002685546875e-02 0.0000000000000000e+00  2.4968000128865242e-02 5.3881000727415085e-02 0.0000000000000000e+00  1.2356000021100044e-02 7.6157003641128540e-02 0.0000000000000000e+00  1.0635999962687492e-02 7.1892000734806061e-02 0.0000000000000000e+00  3.8570000324398279e-03 7.3431998491287231e-02 0.0000000000000000e+00  -1.7023800313472748e-01 -4.0610000491142273e-02 0.0000000000000000e+00  -1.5744900703430176e-01 -3.8208000361919403e-02 0.0000000000000000e+00  -1.6267499327659607e-01 -3.1670000404119492e-02 0.0000000000000000e+00  -1.7514699697494507e-01 -4.7589998692274094e-02 0.0000000000000000e+00  -1.6092899441719055e-01 -4.6078000217676163e-02 0.0000000000000000e+00  -2.4447999894618988e-02 -6.3073001801967621e-02 0.0000000000000000e+00  -2.8085000813007355e-02 -7.2829999029636383e-02 0.0000000000000000e+00  -2.3240000009536743e-02 -6.2458001077175140e-02 0.0000000000000000e+00  -2.7335999533534050e-02 -7.2155997157096863e-02 0.0000000000000000e+00  1.0204000398516655e-02 2.1387999877333641e-02 0.0000000000000000e+00  1.0608999989926815e-02 2.2235000506043434e-02 0.0000000000000000e+00  8.9269997552037239e-03 1.9472999498248100e-02 0.0000000000000000e+00  2.2701999172568321e-02 5.0900999456644058e-02 0.0000000000000000e+00  7.2510000318288803e-03 1.2954000383615494e-02 0.0000000000000000e+00  4.3735999614000320e-02 6.2522999942302704e-02 0.0000000000000000e+00  4.1044000536203384e-02 6.1445999890565872e-02 0.0000000000000000e+00  -1.2134999968111515e-02 -2.6827000081539154e-02 0.0000000000000000e+00  -1.4856000430881977e-02 -3.5436999052762985e-02 0.0000000000000000e+00  -1.1210000142455101e-02 -2.6784000918269157e-02 0.0000000000000000e+00  -9.4710001721978188e-03 -1.8151000142097473e-02 0.0000000000000000e+00  -1.2287000194191933e-02 -2.6621000841259956e-02 0.0000000000000000e+00  -9.5880003646016121e-03 -1.8323000520467758e-02 0.0000000000000000e+00  3.1359998974949121e-03 6.7739998921751976e-03 0.0000000000000000e+00  5.3929998539388180e-03 1.0412000119686127e-02 0.0000000000000000e+00  5.1040002144873142e-03 1.1057999916374683e-02 0.0000000000000000e+00  -2.5029999669641256e-03 -4.3870001100003719e-03 0.0000000000000000e+00  2.7300001238472760e-04 2.4000001139938831e-03 0.0000000000000000e+00  -4.3750000186264515e-03 -4.1370000690221786e-03 0.0000000000000000e+00  -7.0220999419689178e-02 -1.0742399841547012e-01 0.0000000000000000e+00  -6.8806998431682587e-02 -9.9849000573158264e-02 0.0000000000000000e+00  -7.2842001914978027e-02 -1.1030799895524979e-01 0.0000000000000000e+00  -3.5587999969720840e-02 -4.0626000612974167e-02 0.0000000000000000e+00  -2.1034000441431999e-02 -3.3794999122619629e-02 0.0000000000000000e+00  -3.1762000173330307e-02 -3.1679000705480576e-02 0.0000000000000000e+00  3.7779998965561390e-03 -1.5109999803826213e-03 0.0000000000000000e+00  4.2389999143779278e-03 -1.5109999803826213e-03 0.0000000000000000e+00  3.5359999164938927e-03 -1.5109999803826213e-03 0.0000000000000000e+00  3.2840000931173563e-03 -1.5109999803826213e-03 0.0000000000000000e+00  1.5109999803826213e-03 -7.5599999399855733e-04 0.0000000000000000e+00  2.3990001063793898e-03 2.1969999652355909e-03 0.0000000000000000e+00  1.2639999622479081e-03 -5.0800002645701170e-04 0.0000000000000000e+00  2.2350000217556953e-03 2.3429999127984047e-03 0.0000000000000000e+00  4.4909999705851078e-03 4.2960001155734062e-03 0.0000000000000000e+00  2.5430000387132168e-03 3.1719999387860298e-03 0.0000000000000000e+00  1.0120999999344349e-02 1.0131999850273132e-02 0.0000000000000000e+00  8.6310002952814102e-03 7.9279998317360878e-03 0.0000000000000000e+00  9.0229995548725128e-03 9.2169996351003647e-03 0.0000000000000000e+00  7.1020000614225864e-03 7.9119997099041939e-03 0.0000000000000000e+00  8.5690002888441086e-03 1.0126000270247459e-02 0.0000000000000000e+00  6.7810001783072948e-03 6.6410000436007977e-03 0.0000000000000000e+00  9.6640000119805336e-03 8.7000001221895218e-03 0.0000000000000000e+00  7.2869998402893543e-03 5.8900001458823681e-03 0.0000000000000000e+00  7.0589999668300152e-03 5.6940000504255295e-03 0.0000000000000000e+00  8.6810002103447914e-03 7.2759999893605709e-03 0.0000000000000000e+00  5.8039999566972256e-03 8.3879996091127396e-03 0.0000000000000000e+00  -6.7810001783072948e-03 1.3383000157773495e-02 0.0000000000000000e+00  -8.5060000419616699e-03 1.6189999878406525e-02 0.0000000000000000e+00  -5.7359999045729637e-03 1.4922999776899815e-02 0.0000000000000000e+00  1.7198000103235245e-02 -6.3000000081956387e-03 0.0000000000000000e+00  1.7905000597238541e-02 -8.7850000709295273e-03 0.0000000000000000e+00  1.2035000137984753e-02 -2.9360000044107437e-03 0.0000000000000000e+00  4.5719998888671398e-03 6.9880001246929169e-03 0.0000000000000000e+00  -3.3480001147836447e-03 -2.4009998887777328e-03 0.0000000000000000e+00  -2.4419999681413174e-03 6.0500000836327672e-04 0.0000000000000000e+00  -6.0720001347362995e-03 -2.7119999285787344e-03 0.0000000000000000e+00  4.7369999811053276e-03 -1.5109999803826213e-03 0.0000000000000000e+00  5.2889999933540821e-03 -1.5109999803826213e-03 0.0000000000000000e+00  3.0624000355601311e-02 7.4867002665996552e-02 0.0000000000000000e+00  2.8867999091744423e-02 6.8553999066352844e-02 0.0000000000000000e+00  2.8341000899672508e-02 7.1033999323844910e-02 0.0000000000000000e+00  2.9784999787807465e-02 7.7412001788616180e-02 0.0000000000000000e+00  7.4860997498035431e-02 3.4295000135898590e-02 0.0000000000000000e+00  7.2967998683452606e-02 4.4776998460292816e-02 0.0000000000000000e+00  7.5776003301143646e-02 4.1676998138427734e-02 0.0000000000000000e+00  2.3452000692486763e-02 3.2301999628543854e-02 0.0000000000000000e+00  1.8409999087452888e-02 2.9464999213814735e-02 0.0000000000000000e+00  1.8655000254511833e-02 2.9464999213814735e-02 0.0000000000000000e+00  2.1177999675273895e-02 4.6941999346017838e-02 0.0000000000000000e+00  2.0927999168634415e-02 3.1996000558137894e-02 0.0000000000000000e+00  2.1400999277830124e-02 3.2232999801635742e-02 0.0000000000000000e+00  2.5012999773025513e-02 7.0984996855258942e-02 0.0000000000000000e+00  2.9028000310063362e-02 7.7614001929759979e-02 0.0000000000000000e+00  2.6321999728679657e-02 6.8411998450756073e-02 0.0000000000000000e+00  2.7985999360680580e-02 6.5810002386569977e-02 0.0000000000000000e+00  2.3150999099016190e-02 5.8561000972986221e-02 0.0000000000000000e+00  3.0867999419569969e-02 7.4966996908187866e-02 0.0000000000000000e+00  3.3282000571489334e-02 8.3506003022193909e-02 0.0000000000000000e+00  3.3015999943017960e-02 7.2400003671646118e-02 0.0000000000000000e+00  3.5562001168727875e-02 6.9948002696037292e-02 0.0000000000000000e+00  3.8162998855113983e-02 7.7697999775409698e-02 0.0000000000000000e+00  4.1042998433113098e-02 7.4808001518249512e-02 0.0000000000000000e+00  2.3988999426364899e-02 8.4262996912002563e-02 0.0000000000000000e+00  2.3521000519394875e-02 8.7728001177310944e-02 0.0000000000000000e+00  2.8891999274492264e-02 8.8573999702930450e-02 0.0000000000000000e+00  2.9107000678777695e-02 9.2170000076293945e-02 0.0000000000000000e+00  1.1567000299692154e-02 7.7370000071823597e-03 0.0000000000000000e+00  1.1819000355899334e-02 8.7460000067949295e-03 0.0000000000000000e+00  1.2567999772727489e-02 6.5359999425709248e-03 0.0000000000000000e+00  1.3322000391781330e-02 7.3029999621212482e-03 0.0000000000000000e+00  4.3164998292922974e-02 8.0941997468471527e-02 0.0000000000000000e+00  5.7112000882625580e-02 8.4043003618717194e-02 0.0000000000000000e+00  5.7395000010728836e-02 8.3899997174739838e-02 0.0000000000000000e+00  5.9820000082254410e-02 7.8290998935699463e-02 0.0000000000000000e+00  5.4386001080274582e-02 8.9222997426986694e-02 0.0000000000000000e+00  3.1445998698472977e-02 8.6056001484394073e-02 0.0000000000000000e+00  3.9693001657724380e-02 2.5894999504089355e-02 0.0000000000000000e+00  4.2629998177289963e-02 2.6574999094009399e-02 0.0000000000000000e+00  3.5521000623703003e-02 2.2190000861883163e-02 0.0000000000000000e+00  6.8006001412868500e-02 2.6593999937176704e-02 0.0000000000000000e+00  6.7597001791000366e-02 2.4447999894618988e-02 0.0000000000000000e+00  6.7530997097492218e-02 2.6809999719262123e-02 0.0000000000000000e+00  6.7381002008914948e-02 2.5275999680161476e-02 0.0000000000000000e+00  6.7016996443271637e-02 2.2885000333189964e-02 0.0000000000000000e+00  6.6336996853351593e-02 2.6181999593973160e-02 0.0000000000000000e+00  6.6528998315334320e-02 2.7124000713229179e-02 0.0000000000000000e+00  6.7859001457691193e-02 2.3630000650882721e-02 0.0000000000000000e+00  9.5779998227953911e-03 3.5264998674392700e-02 0.0000000000000000e+00  -1.7199999419972301e-03 5.6139999069273472e-03 0.0000000000000000e+00  1.0045000351965427e-02 3.5732001066207886e-02 0.0000000000000000e+00  -1.1050000321120024e-03 8.4100000094622374e-04 0.0000000000000000e+00  -1.9160000374540687e-03 -1.7800000496208668e-03 0.0000000000000000e+00  -2.2420000750571489e-03 -9.7230002284049988e-03 0.0000000000000000e+00  -2.3900000378489494e-03 -4.8130000941455364e-03 0.0000000000000000e+00  -1.7359999474138021e-03 -1.6194999217987061e-02 0.0000000000000000e+00  -3.3209999091923237e-03 -1.9679000601172447e-02 0.0000000000000000e+00  -3.5910001024603844e-03 -1.3379000127315521e-02 0.0000000000000000e+00  8.5389995947480202e-03 3.4490000456571579e-02 0.0000000000000000e+00  -2.4717999622225761e-02 -1.0888000018894672e-02 0.0000000000000000e+00  -1.8138000741600990e-02 -4.4900001958012581e-03 0.0000000000000000e+00  6.6019999794661999e-03 1.9887000322341919e-02 0.0000000000000000e+00  8.8430000469088554e-03 2.2213000804185867e-02 0.0000000000000000e+00  4.1889999993145466e-03 1.9241999834775925e-02 0.0000000000000000e+00  7.4620000086724758e-03 2.1846000105142593e-02 0.0000000000000000e+00  2.5420000310987234e-03 1.8563000485301018e-02 0.0000000000000000e+00  8.7900003418326378e-03 1.9414000213146210e-02 0.0000000000000000e+00  7.0239999331533909e-03 1.6769999638199806e-02 0.0000000000000000e+00  7.1660000830888748e-03 1.6310999169945717e-02 0.0000000000000000e+00  -4.7506999224424362e-02 -3.3271998167037964e-02 0.0000000000000000e+00  -8.8908001780509949e-02 -9.4116002321243286e-02 0.0000000000000000e+00  -9.5069997012615204e-02 -9.8641999065876007e-02 0.0000000000000000e+00  -9.3269996345043182e-02 -9.1301999986171722e-02 0.0000000000000000e+00  -9.4855003058910370e-02 -8.8682003319263458e-02 0.0000000000000000e+00  -9.9490001797676086e-02 -9.6184998750686646e-02 0.0000000000000000e+00  -5.4880000650882721e-02 -7.9031996428966522e-02 0.0000000000000000e+00  -4.8215001821517944e-02 -8.0441996455192566e-02 0.0000000000000000e+00  -5.5174998939037323e-02 -8.8804997503757477e-02 0.0000000000000000e+00  -6.1980001628398895e-02 -9.5904000103473663e-02 0.0000000000000000e+00  -5.4705999791622162e-02 -9.8146997392177582e-02 0.0000000000000000e+00  -3.4175999462604523e-02 -2.9829999431967735e-02 0.0000000000000000e+00  -3.8883998990058899e-02 -3.9583001285791397e-02 0.0000000000000000e+00  -3.1261000782251358e-02 -3.0976999551057816e-02 0.0000000000000000e+00  -2.4690000340342522e-02 -2.2758999839425087e-02 0.0000000000000000e+00  -3.1689999159425497e-03 -7.0290002040565014e-03 0.0000000000000000e+00  -3.6190000828355551e-03 1.4140000566840172e-03 0.0000000000000000e+00  -4.5269997790455818e-03 5.3299998398870230e-04 0.0000000000000000e+00  -2.8319999109953642e-03 5.6650000624358654e-03 0.0000000000000000e+00  -3.0219999607652426e-03 6.0439999215304852e-03 0.0000000000000000e+00  -3.0219999607652426e-03 6.9240001030266285e-03 0.0000000000000000e+00  -3.0219999607652426e-03 7.8720003366470337e-03 0.0000000000000000e+00  -6.9900002563372254e-04 1.3200000103097409e-04 0.0000000000000000e+00  4.1700000292621553e-04 6.0099997790530324e-04 0.0000000000000000e+00  1.0580000234767795e-03 1.1330000124871731e-03 0.0000000000000000e+00  1.7000000298139639e-05 2.2000000171829015e-04 0.0000000000000000e+00  -2.4459999985992908e-03 4.8919999971985817e-03 0.0000000000000000e+00  2.3900000087451190e-04 5.1599997095763683e-04 0.0000000000000000e+00  1.5989999519661069e-03 1.4440000522881746e-03 0.0000000000000000e+00  0.0000000000000000e+00 7.5599999399855733e-04 0.0000000000000000e+00  4.8399998922832310e-04 2.7099999715574086e-04 0.0000000000000000e+00  1.8179999897256494e-03 1.6370000084862113e-03 0.0000000000000000e+00  4.2139999568462372e-03 3.4749999176710844e-03 0.0000000000000000e+00  4.4080000370740891e-03 3.9470000192523003e-03 0.0000000000000000e+00  3.1260000541806221e-03 2.7509999927133322e-03 0.0000000000000000e+00  -9.6589997410774231e-03 1.4210999943315983e-02 0.0000000000000000e+00  -7.1399998851120472e-03 1.0823000222444534e-02 0.0000000000000000e+00  -1.0145000182092190e-02 1.1637999676167965e-02 0.0000000000000000e+00  1.0095999576151371e-02 1.1487999930977821e-02 0.0000000000000000e+00  9.1709997504949570e-03 1.5300000086426735e-02 0.0000000000000000e+00  6.6780000925064087e-03 1.5978999435901642e-02 0.0000000000000000e+00  7.0910002104938030e-03 1.6142999753355980e-02 0.0000000000000000e+00  7.9610003158450127e-03 1.4205000363290310e-02 0.0000000000000000e+00  9.1779995709657669e-03 1.3563999906182289e-02 0.0000000000000000e+00  3.9099999703466892e-03 1.5544000081717968e-02 0.0000000000000000e+00  2.0149999763816595e-03 1.3875000178813934e-02 0.0000000000000000e+00  9.6400000620633364e-04 1.6744000837206841e-02 0.0000000000000000e+00  2.3474000394344330e-02 6.8290002644062042e-02 0.0000000000000000e+00  2.0678000524640083e-02 6.1087999492883682e-02 0.0000000000000000e+00  1.8685000017285347e-02 6.5117001533508301e-02 0.0000000000000000e+00  4.0020998567342758e-02 9.7245998680591583e-02 0.0000000000000000e+00  3.6688998341560364e-02 9.2986002564430237e-02 0.0000000000000000e+00  3.7624001502990723e-02 9.7043998539447784e-02 0.0000000000000000e+00  5.4193001240491867e-02 1.2184599786996841e-01 0.0000000000000000e+00  5.4696999490261078e-02 1.2385399639606476e-01 0.0000000000000000e+00  5.5679999291896820e-02 1.2488800287246704e-01 0.0000000000000000e+00  2.5686999782919884e-02 5.3640998899936676e-02 0.0000000000000000e+00  -1.1718999594449997e-02 7.3175996541976929e-02 0.0000000000000000e+00  -2.0681999623775482e-02 7.1638002991676331e-02 0.0000000000000000e+00  -6.8959998898208141e-03 7.6669000089168549e-02 0.0000000000000000e+00  1.6499999910593033e-03 7.8555002808570862e-02 0.0000000000000000e+00  -5.8209998533129692e-03 7.4105001986026764e-02 0.0000000000000000e+00  -6.6299998434260488e-04 7.4305996298789978e-02 0.0000000000000000e+00  2.9479999095201492e-02 9.5389999449253082e-02 0.0000000000000000e+00  3.4221999347209930e-02 9.6564002335071564e-02 0.0000000000000000e+00  3.4876000136137009e-02 9.9693000316619873e-02 0.0000000000000000e+00  3.8635000586509705e-02 1.0089500248432159e-01 0.0000000000000000e+00  1.8064999952912331e-02 7.9953998327255249e-02 0.0000000000000000e+00  9.2270001769065857e-03 7.8755997121334076e-02 0.0000000000000000e+00  1.0919000022113323e-02 8.2767002284526825e-02 0.0000000000000000e+00  6.0330000706017017e-03 8.2269996404647827e-02 0.0000000000000000e+00  6.5190000459551811e-03 8.3950996398925781e-02 0.0000000000000000e+00  1.5008999966084957e-02 8.7186001241207123e-02 0.0000000000000000e+00  1.7481999471783638e-02 8.3278000354766846e-02 0.0000000000000000e+00  -1.8285399675369263e-01 -6.0263998806476593e-02 0.0000000000000000e+00  -1.8409200012683868e-01 -6.5093003213405609e-02 0.0000000000000000e+00  -1.7501600086688995e-01 -6.7530997097492218e-02 0.0000000000000000e+00  -1.5760900080204010e-01 -5.3847998380661011e-02 0.0000000000000000e+00  -1.6893899440765381e-01 -5.2216000854969025e-02 0.0000000000000000e+00  -1.6802899539470673e-01 -5.8820001780986786e-02 0.0000000000000000e+00  -1.8003199994564056e-01 -5.4579999297857285e-02 0.0000000000000000e+00  -1.7619000747799873e-02 -4.4197998940944672e-02 0.0000000000000000e+00  -1.2672999873757362e-02 -3.4556999802589417e-02 0.0000000000000000e+00  -1.4344999566674232e-02 -3.5123001784086227e-02 0.0000000000000000e+00  -1.7694000154733658e-02 -4.4275000691413879e-02 0.0000000000000000e+00  -2.7182999998331070e-02 -7.3110997676849365e-02 0.0000000000000000e+00  -4.9713000655174255e-02 -1.1130099743604660e-01 0.0000000000000000e+00  -4.6158999204635620e-02 -1.1231800168752670e-01 0.0000000000000000e+00  -5.2606999874114990e-02 -1.2077700346708298e-01 0.0000000000000000e+00  -2.3872999474