<?xml version="1.0"?>
<VTKFile type="UnstructuredGrid"  version="0.1"  >
<UnstructuredGrid>
<Piece  NumberOfPoints="6340" NumberOfCells="12376">
<Points>
<DataArray  type="Float64"  NumberOfComponents="3"  format="ascii">-0.01937899924814701 0.02068999968469143 0  -0.02004200033843517 0.0213409997522831 0  -0.02026999928057194 0.02036000043153763 0  -0.02080800011754036 0.02109399996697903 0  -0.01961199939250946 0.01977100037038326 0  -0.01921699941158295 0.02156499959528446 0  -0.01969899982213974 0.0222960002720356 0  -0.01923700049519539 0.02311200089752674 0  -0.02015299908816814 0.02303300052881241 0  -0.01876199990510941 0.02229000069200993 0  -0.008817000314593315 0.01754499971866608 0  -0.009438999928534031 0.01846699975430965 0  -0.00977300014346838 0.01752899959683418 0  -0.01040100026875734 0.0184909999370575 0  -0.02546700090169907 0.0752979964017868 0  -0.02640599943697453 0.07572700083255768 0  -0.0265519991517067 0.07494000345468521 0  -0.02592200040817261 0.06869900226593018 0  -0.02653799951076508 0.06943300366401672 0  -0.02673500031232834 0.0685259997844696 0  -0.02745999954640865 0.06897000223398209 0  -0.01300700008869171 0.08707799762487411 0  -0.01392399985343218 0.08693700283765793 0  -0.01333600003272295 0.08623199909925461 0  -0.01987200044095516 0.08125299960374832 0  -0.0189059991389513 0.08140499889850616 0  -0.01945699937641621 0.0821240022778511 0  -0.01932599954307079 0.08052899688482285 0  -0.02181299962103367 0.02446000091731548 0  -0.02095000073313713 0.02457999996840954 0  -0.02132399939000607 0.02534300088882446 0  -0.02165699936449528 0.02611500024795532 0  -0.02220400050282478 0.02523300051689148 0  -0.02045300044119358 0.02546799927949905 0  -0.02007099986076355 0.02466700039803982 0  -0.01918100006878376 0.02474300004541874 0  -0.01957499980926514 0.02554400078952312 0  -0.02143399976193905 0.02367600053548813 0  -0.02237799949944019 0.02360600046813488 0  -0.02180000022053719 0.02245000004768372 0  -0.02131799980998039 0.02179200015962124 0  -0.02103899978101254 0.0228669997304678 0  -0.02053900063037872 0.02211200073361397 0  -0.01619699969887733 0.02198000065982342 0  -0.0166970007121563 0.02110300026834011 0  -0.01575499959290028 0.02108000032603741 0  -0.01706999912858009 0.0220979992300272 0  -0.01796000078320503 0.02210200019180775 0  -0.01748000085353851 0.02298299968242645 0  0.04276899993419647 0.08079099655151367 0  0.0423859991133213 0.07994700223207474 0  0.04371000081300735 0.08016300201416016 0  0.04591500014066696 0.09143999963998795 0  0.04672500118613243 0.0917619988322258 0  0.04562300071120262 0.09225600212812424 0  0.02787899971008301 0.1001970022916794 0  0.02802900038659573 0.0993489995598793 0  0.02896500006318092 0.09971100091934204 0  0.02688200026750565 0.1006430014967918 0  0.02701799944043159 0.09961599856615067 0  -0.006515999790281057 0.09602200239896774 0  -0.005526000168174505 0.09615500271320343 0  -0.006115000229328871 0.09686700254678726 0  -0.005119000095874071 0.09700000286102295 0  -0.01856900006532669 0.09565799683332443 0  -0.01895499974489212 0.09491900354623795 0  -0.01786099933087826 0.09516800194978714 0  -0.01954899914562702 0.09571699798107147 0  -0.0145049998536706 0.1020300015807152 0  -0.01472000032663345 0.1028629988431931 0  -0.0153609998524189 0.1020750030875206 0  -0.01074799988418818 0.0946350023150444 0  -0.009790999814867973 0.09477700293064117 0  -0.0103789996355772 0.09548900276422501 0  -0.01170200016349554 0.09448599815368652 0  -0.01111400034278631 0.09377499669790268 0  -0.01206700038164854 0.0936259999871254 0  -0.01441700011491776 0.09642399847507477 0  -0.01496300008147955 0.09710799902677536 0  -0.01540399994701147 0.09625700116157532 0  -0.01324899960309267 0.09504000097513199 0  -0.01421499997377396 0.09489099681377411 0  -0.01361399982124567 0.09418900310993195 0  0.01261799968779087 0.09251800179481506 0  0.01368100009858608 0.09245999902486801 0  0.01308999955654144 0.0932530015707016 0  0.007912999950349331 0.07830999791622162 0  0.008383999578654766 0.07748399674892426 0  0.008976000361144543 0.07825200259685516 0  -0.008559999987483025 0.01662000082433224 0  -0.007776000071316957 0.01677300035953522 0  -0.009387999773025513 0.01656600087881088 0  -0.01025199983268976 0.01650900021195412 0  -0.01370000001043081 0.01669000089168549 0  -0.01390499994158745 0.0178069993853569 0  -0.01449900027364492 0.01692900061607361 0  -0.0131419999524951 0.01757300086319447 0  -0.01313900016248226 0.01862600073218346 0  -0.01236500032246113 0.01769999973475933 0  -0.01262100040912628 0.02158400043845177 0  -0.01310000009834766 0.02063699997961521 0  -0.01221999991685152 0.02062599919736385 0  -0.01180399954319 0.01971900090575218 0  -0.01126299984753132 0.0205450002104044 0  -0.01270100008696318 0.01963800005614758 0  -0.0135070001706481 0.02164899930357933 0  -0.01486499980092049 0.0209330003708601 0  -0.0152829997241497 0.02191399969160557 0  -0.01439500041306019 0.02178299985826015 0  -0.009890999644994736 0.01942200027406216 0  -0.01132700033485889 0.03068999946117401 0  -0.01182499993592501 0.02983099967241287 0  -0.01089899986982346 0.02972600050270557 0  -0.00620400020852685 0.0290719997137785 0  -0.006649999879300594 0.03006800077855587 0  -0.007151000201702118 0.02921999990940094 0  -0.008971000090241432 0.01941299997270107 0  -0.006616000086069107 0.01863599941134453 0  -0.007553000003099442 0.01855700090527534 0  -0.006831000093370676 0.01778499968349934 0  -0.006928000133484602 0.01693700067698956 0  -0.00598999997600913 0.01711999997496605 0  0.04782800003886223 0.08773700147867203 0  0.04862700030207634 0.08725800365209579 0  0.04850399866700172 0.08833900094032288 0  0.04743799939751625 0.08849599957466125 0  0.01562200020998716 0.05823900178074837 0  0.01664900034666061 0.05808300152420998 0  0.01620900072157383 0.05900200083851814 0  0.02865899913012981 0.0424950011074543 0  0.02908699959516525 0.04142000153660774 0  0.02959699928760529 0.04211800172924995 0  0.03102800063788891 0.04657899960875511 0  0.03192000091075897 0.04585900157690048 0  0.0323060005903244 0.0466030016541481 0  0.03093899972736835 0.05010800063610077 0  0.02998599968850613 0.05020999908447266 0  0.03047999925911427 0.04924000054597855 0  0.02999399974942207 0.04842500016093254 0  0.03101699985563755 0.04827100038528442 0  0.02948500029742718 0.04938200116157532 0  0.02899900078773499 0.05034000054001808 0  0.02895399928092957 0.04859400168061256 0  0.02836400084197521 0.04784699901938438 0  0.02790899947285652 0.04875700175762177 0  0.02730399928987026 0.0480090007185936 0  0.04524699971079826 0.08999700099229813 0  0.04414400085806847 0.09005899727344513 0  0.04474899917840958 0.08927799761295319 0  0.04366900026798248 0.08930999785661697 0  0.006754999980330467 0.02289099991321564 0  0.00750300008803606 0.02335499972105026 0  0.006785999983549118 0.02399300038814545 0  0.007598000112921 0.02434699982404709 0  0.02685900032520294 0.04892000183463097 0  0.02284299954771996 0.05120600014925003 0  0.02240199968218803 0.05212299898266792 0  0.02179899998009205 0.05135500058531761 0  0.02344200015068054 0.05197500064969063 0  0.02952500060200691 0.05117499828338623 0  0.01769099943339825 0.03428100049495697 0  0.0168210007250309 0.03413800150156021 0  0.01720999926328659 0.03322099894285202 0  0.01242700032889843 0.03964899852871895 0  0.01150299981236458 0.03964199870824814 0  0.01193900033831596 0.03872799873352051 0  0.01101399958133698 0.03872200101613998 0  0.01057699974626303 0.03963400050997734 0  0.01052500028163195 0.03780199959874153 0  0.0114510003477335 0.03780899941921234 0  0.01199099980294704 0.04056200012564659 0  -0.02734499983489513 0.06983999907970428 0  -0.02626300044357777 0.07027100026607513 0  -0.02724000066518784 0.07063499838113785 0  -0.02558800019323826 0.06961400061845779 0  -0.02521299943327904 0.07046499848365784 0  -0.02419600076973438 0.07065799832344055 0  -0.02467400021851063 0.07136999815702438 0  -0.0236200001090765 0.06996600329875946 0  -0.02319799922406673 0.07083500176668167 0  -0.02371400035917759 0.07154300063848495 0  -0.02754399925470352 0.06806600093841553 0  -0.01904500089585781 0.08298800140619278 0  -0.02000599913299084 0.08284000307321548 0  -0.01893600076436996 0.09175100177526474 0  -0.01986400038003922 0.09164799749851227 0  -0.01927400007843971 0.09092900156974792 0  -0.0201990008354187 0.09083099663257599 0  -0.0196090005338192 0.09010499715805054 0  -0.01801900006830692 0.094370998442173 0  -0.01710999943315983 0.0944959968328476 0  -0.01684099994599819 0.09531299769878387 0  -0.01425299979746342 0.08608999848365784 0  -0.01148399990051985 0.08015400171279907 0  -0.01052199956029654 0.08030600100755692 0  -0.01108200009912252 0.08102100342512131 0  -0.01071599964052439 0.08187700062990189 0  -0.01014100015163422 0.08116699755191803 0  -0.01527599990367889 0.07789699733257294 0  -0.01572900079190731 0.0769990012049675 0  -0.01475599966943264 0.07716000080108643 0  -0.01378200016915798 0.07732100039720535 0  -0.01423100009560585 0.07642599940299988 0  -0.01835699938237667 0.08068399876356125 0  -0.01782499998807907 0.0799499973654747 0  -0.01879999972879887 0.07979100197553635 0  -0.01977499946951866 0.07963299751281738 0  -0.02426400035619736 0.07225500047206879 0  -0.02483800053596497 0.07459499686956406 0  -0.02444499917328358 0.07546699792146683 0  -0.0226840004324913 0.02421800047159195 0  -0.02298000082373619 0.02480999939143658 0  -0.02318999916315079 0.02539500035345554 0  -0.02341599948704243 0.02602499909698963 0  -0.02250500023365021 0.0260390006005764 0  -0.01966599933803082 0.0238840002566576 0  -0.01876799948513508 0.02394899912178516 0  -0.0205680001527071 0.02378799952566624 0  -0.02208000048995018 0.02301100082695484 0  -0.01765800081193447 0.01826100051403046 0  -0.01728400029242039 0.01902399957180023 0  -0.01836000010371208 0.0186500009149313 0  -0.01693700067698956 0.01786099933087826 0  -0.01832599937915802 0.02309099957346916 0  -0.0165960006415844 0.
[...]
<PointData  Vectors="velocity"> 
<DataArray  type="Float64"  Name="velocity"  NumberOfComponents="3" format="ascii">3.8429999258369207e-03 3.5010001156479120e-03 0.0000000000000000e+00  3.3239999320358038e-03 3.0350000597536564e-03 0.0000000000000000e+00  -1.5109999803826213e-03 1.5109999803826213e-03 0.0000000000000000e+00  -1.2460000580176711e-03 1.5109999803826213e-03 0.0000000000000000e+00  -1.7709999810904264e-03 1.5109999803826213e-03 0.0000000000000000e+00  7.4760001152753830e-03 6.5210000611841679e-03 0.0000000000000000e+00  7.3589999228715897e-03 6.3680000603199005e-03 0.0000000000000000e+00  1.1297999881207943e-02 9.2200003564357758e-03 0.0000000000000000e+00  7.0360000245273113e-03 6.0299998149275780e-03 0.0000000000000000e+00  1.1893999762833118e-02 9.8169995471835136e-03 0.0000000000000000e+00  5.3050001151859760e-03 2.6779999025166035e-03 0.0000000000000000e+00  1.2436999939382076e-02 6.8890000693500042e-03 0.0000000000000000e+00  5.7930001057684422e-03 2.9200001154094934e-03 0.0000000000000000e+00  1.3000999577343464e-02 7.3420000262558460e-03 0.0000000000000000e+00  -1.8355000764131546e-02 -5.1633000373840332e-02 0.0000000000000000e+00  9.7770001739263535e-03 -2.3421000689268112e-02 0.0000000000000000e+00  9.0720001608133316e-03 -2.3421000689268112e-02 0.0000000000000000e+00  -1.5331000089645386e-02 -7.7758997678756714e-02 0.0000000000000000e+00  -1.4507000334560871e-02 -6.7414000630378723e-02 0.0000000000000000e+00  -1.2594999745488167e-02 -6.8038001656532288e-02 0.0000000000000000e+00  9.8219998180866241e-03 -2.1910000592470169e-02 0.0000000000000000e+00  -7.4831999838352203e-02 -7.9529002308845520e-02 0.0000000000000000e+00  -6.6157996654510498e-02 -6.6437996923923492e-02 0.0000000000000000e+00  -8.1932000815868378e-02 -8.4301002323627472e-02 0.0000000000000000e+00  -5.1275998353958130e-02 -5.6804999709129333e-02 0.0000000000000000e+00  -6.1161998659372330e-02 -6.5706998109817505e-02 0.0000000000000000e+00  -5.0547000020742416e-02 -5.1072999835014343e-02 0.0000000000000000e+00  -5.9983000159263611e-02 -7.1221999824047089e-02 0.0000000000000000e+00  2.7570000384002924e-03 2.3860000073909760e-03 0.0000000000000000e+00  5.7459999807178974e-03 4.7869998961687088e-03 0.0000000000000000e+00  3.7650000303983688e-03 3.0680000782012939e-03 0.0000000000000000e+00  2.7590000536292791e-03 2.1979999728500843e-03 0.0000000000000000e+00  1.6349999932572246e-03 1.3729999773204327e-03 0.0000000000000000e+00  7.1859997697174549e-03 5.6300000287592411e-03 0.0000000000000000e+00  9.1270003467798233e-03 7.2710001841187477e-03 0.0000000000000000e+00  1.3136999681591988e-02 9.9769998341798782e-03 0.0000000000000000e+00  1.1002000421285629e-02 8.2440003752708435e-03 0.0000000000000000e+00  3.6110000219196081e-03 3.1910000834614038e-03 0.0000000000000000e+00  -1.5999999959603883e-05 7.7099999180063605e-04 0.0000000000000000e+00  -7.5599999399855733e-04 1.5109999803826213e-03 0.0000000000000000e+00  -9.9400000181049109e-04 1.5109999803826213e-03 0.0000000000000000e+00  3.5399999469518661e-03 3.1779999844729900e-03 0.0000000000000000e+00  3.5870000720024109e-03 3.2480000518262386e-03 0.0000000000000000e+00  2.6310000568628311e-02 1.9037999212741852e-02 0.0000000000000000e+00  1.9472999498248100e-02 1.5092999674379826e-02 0.0000000000000000e+00  2.4822000414133072e-02 1.8170999363064766e-02 0.0000000000000000e+00  2.1191999316215515e-02 1.6054999083280563e-02 0.0000000000000000e+00  1.5814999118447304e-02 1.2602999806404114e-02 0.0000000000000000e+00  2.1028999239206314e-02 1.5692999586462975e-02 0.0000000000000000e+00  6.0113001614809036e-02 1.0811699926853180e-01 0.0000000000000000e+00  5.9222001582384109e-02 1.1092899739742279e-01 0.0000000000000000e+00  -7.7949999831616879e-03 -3.7739001214504242e-02 0.0000000000000000e+00  6.6568002104759216e-02 9.6693001687526703e-02 0.0000000000000000e+00  6.2435999512672424e-02 8.8752001523971558e-02 0.0000000000000000e+00  6.6014997661113739e-02 9.8470002412796021e-02 0.0000000000000000e+00  -2.5045000016689301e-02 6.3968002796173096e-02 0.0000000000000000e+00  -2.1090000867843628e-02 7.9241998493671417e-02 0.0000000000000000e+00  -1.6109999269247055e-02 7.7264003455638885e-02 0.0000000000000000e+00  -3.2703001052141190e-02 5.1353000104427338e-02 0.0000000000000000e+00  -2.9202999547123909e-02 6.9815002381801605e-02 0.0000000000000000e+00  -8.7149001657962799e-02 -8.4957003593444824e-02 0.0000000000000000e+00  -9.6905000507831573e-02 -9.8592996597290039e-02 0.0000000000000000e+00  -8.2530997693538666e-02 -8.1179000437259674e-02 0.0000000000000000e+00  -9.2510998249053955e-02 -9.4972997903823853e-02 0.0000000000000000e+00  5.9159998781979084e-03 2.3610999807715416e-02 0.0000000000000000e+00  5.3039998747408390e-03 2.1720999851822853e-02 0.0000000000000000e+00  2.6420000940561295e-03 2.4503000080585480e-02 0.0000000000000000e+00  1.2051999568939209e-02 -3.4015998244285583e-02 0.0000000000000000e+00  1.4082999899983406e-02 3.0345000326633453e-02 0.0000000000000000e+00  6.5399997401982546e-04 -4.3115001171827316e-02 0.0000000000000000e+00  2.2690000478178263e-03 -4.2307000607252121e-02 0.0000000000000000e+00  -4.9107000231742859e-02 -3.2496001571416855e-02 0.0000000000000000e+00  -5.8522999286651611e-02 -4.6372998505830765e-02 0.0000000000000000e+00  -4.9350999295711517e-02 -2.9649000614881516e-02 0.0000000000000000e+00  -4.0642999112606049e-02 -2.1283000707626343e-02 0.0000000000000000e+00  -4.8478998243808746e-02 -3.6433000117540359e-02 0.0000000000000000e+00  -3.9778999984264374e-02 -2.4299999698996544e-02 0.0000000000000000e+00  -1.0053999722003937e-02 1.9888000562787056e-02 0.0000000000000000e+00  -6.2930001877248287e-03 2.5263000279664993e-02 0.0000000000000000e+00  -4.8380000516772270e-03 2.4880999699234962e-02 0.0000000000000000e+00  -2.5824999436736107e-02 2.4580000899732113e-03 0.0000000000000000e+00  -1.9545000046491623e-02 9.3090003356337547e-03 0.0000000000000000e+00  -2.5197999551892281e-02 -9.1100001009181142e-04 0.0000000000000000e+00  -1.3782000541687012e-01 9.8099997267127037e-03 0.0000000000000000e+00  -1.3069899380207062e-01 3.1008999794721603e-02 0.0000000000000000e+00  -1.3732700049877167e-01 1.4006000012159348e-02 0.0000000000000000e+00  -2.3826999589800835e-02 -7.8739998862147331e-03 0.0000000000000000e+00  -1.0963999666273594e-02 1.1293999850749969e-02 0.0000000000000000e+00  -1.1633999645709991e-02 1.4743999578058720e-02 0.0000000000000000e+00  -2.2670000325888395e-03 7.5599999399855733e-04 0.0000000000000000e+00  -2.0359999034553766e-03 7.5599999399855733e-04 0.0000000000000000e+00  -2.0250000525265932e-03 7.5599999399855733e-04 0.0000000000000000e+00  -1.7729999963194132e-03 7.5599999399855733e-04 0.0000000000000000e+00  -1.5109999803826213e-03 7.5599999399855733e-04 0.0000000000000000e+00  5.5559999309480190e-03 3.9670001715421677e-03 0.0000000000000000e+00  -1.5109999803826213e-03 7.5599999399855733e-04 0.0000000000000000e+00  4.9769999459385872e-03 3.2929999288171530e-03 0.0000000000000000e+00  1.2128000147640705e-02 8.0840000882744789e-03 0.0000000000000000e+00  6.4750001765787601e-03 4.0279999375343323e-03 0.0000000000000000e+00  4.1005000472068787e-02 2.5433000177145004e-02 0.0000000000000000e+00  3.0637999996542931e-02 1.9527999684214592e-02 0.0000000000000000e+00  3.1426001340150833e-02 1.9316000863909721e-02 0.0000000000000000e+00  2.2337999194860458e-02 1.3561000116169453e-02 0.0000000000000000e+00  3.0052000656723976e-02 1.8100999295711517e-02 0.0000000000000000e+00  2.0856000483036041e-02 1.3229999691247940e-02 0.0000000000000000e+00  3.9524000138044357e-02 2.5206999853253365e-02 0.0000000000000000e+00  2.8462000191211700e-02 1.9838999956846237e-02 0.0000000000000000e+00  3.1824000179767609e-02 2.1936999633908272e-02 0.0000000000000000e+00  3.6396998912096024e-02 2.4077000096440315e-02 0.0000000000000000e+00  1.9961999729275703e-02 1.1526999995112419e-02 0.0000000000000000e+00  4.0486000478267670e-02 3.7817001342773438e-02 0.0000000000000000e+00  4.0111001580953598e-02 3.8747001439332962e-02 0.0000000000000000e+00  4.7058999538421631e-02 4.2904999107122421e-02 0.0000000000000000e+00  7.6486997306346893e-02 5.3552001714706421e-02 0.0000000000000000e+00  7.5484000146389008e-02 5.3073000162839890e-02 0.0000000000000000e+00  7.1993999183177948e-02 5.2733000367879868e-02 0.0000000000000000e+00  1.9100999459624290e-02 1.0966000147163868e-02 0.0000000000000000e+00  9.8149999976158142e-03 5.5309999734163284e-03 0.0000000000000000e+00  1.0840999893844128e-02 6.0749999247491360e-03 0.0000000000000000e+00  4.4350000098347664e-03 2.5989999994635582e-03 0.0000000000000000e+00  -1.7869999865069985e-03 7.5599999399855733e-04 0.0000000000000000e+00  -1.5109999803826213e-03 7.5599999399855733e-04 0.0000000000000000e+00  5.4912000894546509e-02 7.0161998271942139e-02 0.0000000000000000e+00  4.9486000090837479e-02 6.0373999178409576e-02 0.0000000000000000e+00  5.2310999482870102e-02 6.6022999584674835e-02 0.0000000000000000e+00  5.8297000825405121e-02 7.6825000345706940e-02 0.0000000000000000e+00  1.2283799797296524e-01 1.5567800402641296e-01 0.0000000000000000e+00  1.2313099950551987e-01 1.6292099654674530e-01 0.0000000000000000e+00  1.1596500128507614e-01 1.6146700084209442e-01 0.0000000000000000e+00  3.4462001174688339e-02 3.7934999912977219e-02 0.0000000000000000e+00  -1.7377000302076340e-02 -1.1409999802708626e-02 0.0000000000000000e+00  -1.7377000302076340e-02 -1.2145999819040298e-02 0.0000000000000000e+00  3.8198001682758331e-02 5.6984998285770416e-02 0.0000000000000000e+00  -1.7111999914050102e-02 -1.5147999860346317e-02 0.0000000000000000e+00  -1.6875000670552254e-02 -1.5859000384807587e-02 0.0000000000000000e+00  5.1842000335454941e-02 9.7749002277851105e-02 0.0000000000000000e+00  6.3423998653888702e-02 1.0875999927520752e-01 0.0000000000000000e+00  5.6379001587629318e-02 9.1443002223968506e-02 0.0000000000000000e+00  5.8811999857425690e-02 8.7154000997543335e-02 0.0000000000000000e+00  4.7116998583078384e-02 7.4744001030921936e-02 0.0000000000000000e+00  6.8134002387523651e-02 1.0346800088882446e-01 0.0000000000000000e+00  7.5315997004508972e-02 1.1900299787521362e-01 0.0000000000000000e+00  7.1080997586250305e-02 9.9697999656200409e-02 0.0000000000000000e+00  7.4166998267173767e-02 9.6762999892234802e-02 0.0000000000000000e+00  8.3236001431941986e-02 1.1077000200748444e-01 0.0000000000000000e+00  8.6645998060703278e-02 1.0772000253200531e-01 0.0000000000000000e+00  7.1189999580383301e-02 1.0326199978590012e-01 0.0000000000000000e+00  7.5998999178409576e-02 1.1516000330448151e-01 0.0000000000000000e+00  7.3801003396511078e-02 1.0775999724864960e-01 0.0000000000000000e+00  7.8378997743129730e-02 1.2025599926710129e-01 0.0000000000000000e+00  -5.5229999125003815e-03 -9.8999997135251760e-04 0.0000000000000000e+00  -5.7749999687075615e-03 -1.2420000275596976e-03 0.0000000000000000e+00  3.3760000951588154e-03 2.6459998916834593e-03 0.0000000000000000e+00  4.8270002007484436e-03 3.4499999601393938e-03 0.0000000000000000e+00  9.4772003591060638e-02 1.2033499777317047e-01 0.0000000000000000e+00  1.3102699816226959e-01 1.5333099663257599e-01 0.0000000000000000e+00  1.3253900408744812e-01 1.5873900055885315e-01 0.0000000000000000e+00  1.3725000619888306e-01 1.5389899909496307e-01 0.0000000000000000e+00  1.2625099718570709e-01 1.5831699967384338e-01 0.0000000000000000e+00  6.9107003509998322e-02 1.2457600235939026e-01 0.0000000000000000e+00  5.0971999764442444e-02 3.2170999795198441e-02 0.0000000000000000e+00  5.6411001831293106e-02 3.5266999155282974e-02 0.0000000000000000e+00  4.2656999081373215e-02 2.6467999443411827e-02 0.0000000000000000e+00  1.5419499576091766e-01 9.2633001506328583e-02 0.0000000000000000e+00  1.5879599750041962e-01 9.3029998242855072e-02 0.0000000000000000e+00  1.5016299486160278e-01 8.8035002350807190e-02 0.0000000000000000e+00  1.5565499663352966e-01 8.8412001729011536e-02 0.0000000000000000e+00  1.6326999664306641e-01 9.2851996421813965e-02 0.0000000000000000e+00  1.5167200565338135e-01 8.3456002175807953e-02 0.0000000000000000e+00  1.4615400135517120e-01 8.2860998809337616e-02 0.0000000000000000e+00  1.6246299445629120e-01 9.6730001270771027e-02 0.0000000000000000e+00  9.3099996447563171e-03 -2.2165000438690186e-02 0.0000000000000000e+00  -1.5635000541806221e-02 -6.7351996898651123e-02 0.0000000000000000e+00  8.8419998064637184e-03 -2.2399000823497772e-02 0.0000000000000000e+00  -1.8168000504374504e-02 -7.8619003295898438e-02 0.0000000000000000e+00  -2.0178999751806259e-02 -7.9343996942043304e-02 0.0000000000000000e+00  -2.5567000731825829e-02 -9.1806001961231232e-02 0.0000000000000000e+00  -2.3014999926090240e-02 -8.1662997603416443e-02 0.0000000000000000e+00  -2.7294000610709190e-02 -1.0297899693250656e-01 0.0000000000000000e+00  -3.1222000718116760e-02 -1.0419200360774994e-01 0.0000000000000000e+00  -2.8207000344991684e-02 -9.2996001243591309e-02 0.0000000000000000e+00  1.0348999872803688e-02 -2.1382000297307968e-02 0.0000000000000000e+00  -4.8509001731872559e-02 -4.5428998768329620e-02 0.0000000000000000e+00  -3.9413001388311386e-02 -3.7532001733779907e-02 0.0000000000000000e+00  -1.4929999597370625e-03 1.5917999669909477e-02 0.0000000000000000e+00  4.2999998549930751e-04 1.4764999970793724e-02 0.0000000000000000e+00  -1.1729999678209424e-03 1.3868999667465687e-02 0.0000000000000000e+00  4.3499999446794391e-04 1.2787000276148319e-02 0.0000000000000000e+00  -1.0310000507161021e-03 1.1451000347733498e-02 0.0000000000000000e+00  -1.2169999536126852e-03 2.1833000704646111e-02 0.0000000000000000e+00  -4.4559999369084835e-03 2.1863000467419624e-02 0.0000000000000000e+00  -1.2450000504031777e-03 2.4013999849557877e-02 0.0000000000000000e+00  -7.3059000074863434e-02 -7.1928001940250397e-02 0.0000000000000000e+00  -1.4199399948120117e-01 -1.7046600580215454e-01 0.0000000000000000e+00  -1.4821299910545349e-01 -1.7723000049591064e-01 0.0000000000000000e+00  -1.4337599277496338e-01 -1.6777199506759644e-01 0.0000000000000000e+00  -1.4520800113677979e-01 -1.6478799283504486e-01 0.0000000000000000e+00  -1.4876100420951843e-01 -1.7457999289035797e-01 0.0000000000000000e+00  -1.0469900071620941e-01 -1.5083199739456177e-01 0.0000000000000000e+00  -9.7066998481750488e-02 -1.5346400439739227e-01 0.0000000000000000e+00  -1.0553599894046783e-01 -1.6248199343681335e-01 0.0000000000000000e+00  -1.1355199664831161e-01 -1.7054699361324310e-01 0.0000000000000000e+00  -1.0752999782562256e-01 -1.7339700460433960e-01 0.0000000000000000e+00  -7.0355996489524841e-02 -8.1376001238822937e-02 0.0000000000000000e+00  -7.7919997274875641e-02 -9.6878997981548309e-02 0.0000000000000000e+00  -6.7396000027656555e-02 -8.5938997566699982e-02 0.0000000000000000e+00  -5.7151000946760178e-02 -7.5808003544807434e-02 0.0000000000000000e+00  -2.6100000366568565e-02 -8.2079999148845673e-02 0.0000000000000000e+00  -2.1687999367713928e-02 -6.1487998813390732e-02 0.0000000000000000e+00  -2.4098999798297882e-02 -6.0662001371383667e-02 0.0000000000000000e+00  3.7600001087412238e-04 3.7900000461377203e-04 0.0000000000000000e+00  7.5599999399855733e-04 0.0000000000000000e+00 0.0000000000000000e+00  1.1080000549554825e-03 -1.7600000137463212e-04 0.0000000000000000e+00  1.4870000304654241e-03 -3.6599999293684959e-04 0.0000000000000000e+00  1.3210000470280647e-03 1.0799999581649899e-03 0.0000000000000000e+00  1.0374000295996666e-02 8.3720004186034203e-03 0.0000000000000000e+00  1.4862000010907650e-02 1.1420999653637409e-02 0.0000000000000000e+00  6.5569998696446419e-03 5.5510001257061958e-03 0.0000000000000000e+00  -3.9699999615550041e-04 1.1520000407472253e-03 0.0000000000000000e+00  -2.0270000677555799e-03 1.2720000231638551e-03 0.0000000000000000e+00  5.8880001306533813e-03 5.1970002241432667e-03 0.0000000000000000e+00  -2.2670000325888395e-03 1.5109999803826213e-03 0.0000000000000000e+00  -1.7819999484345317e-03 1.0270000202581286e-03 0.0000000000000000e+00  1.6131000593304634e-02 1.2558000162243843e-02 0.0000000000000000e+00  2.6816999539732933e-02 1.9084999337792397e-02 0.0000000000000000e+00  3.1587999314069748e-02 2.1494999527931213e-02 0.0000000000000000e+00  2.5567999109625816e-02 1.8013000488281250e-02 0.0000000000000000e+00  3.2944999635219574e-02 3.3027999103069305e-02 0.0000000000000000e+00  3.4334998577833176e-02 3.1369999051094055e-02 0.0000000000000000e+00  2.7373999357223511e-02 2.6483999565243721e-02 0.0000000000000000e+00  4.0963999927043915e-02 2.5035999715328217e-02 0.0000000000000000e+00  5.6891001760959625e-02 3.6143001168966293e-02 0.0000000000000000e+00  6.1089001595973969e-02 4.0153998881578445e-02 0.0000000000000000e+00  5.9629999101161957e-02 3.9838001132011414e-02 0.0000000000000000e+00  5.5721998214721680e-02 3.5022001713514328e-02 0.0000000000000000e+00  4.8110999166965485e-02 2.9738999903202057e-02 0.0000000000000000e+00  6.3827998936176300e-02 4.3388001620769501e-02 0.0000000000000000e+00  6.5582998096942902e-02 4.5993000268936157e-02 0.0000000000000000e+00  6.2928996980190277e-02 4.5864000916481018e-02 0.0000000000000000e+00  5.2976001054048538e-02 6.8975001573562622e-02 0.0000000000000000e+00  4.7664001584053040e-02 6.0238000005483627e-02 0.0000000000000000e+00  5.2682999521493912e-02 6.9297999143600464e-02 0.0000000000000000e+00  7.3698997497558594e-02 1.1028700321912766e-01 0.0000000000000000e+00  7.1832999587059021e-02 1.0394900292158127e-01 0.0000000000000000e+00  7.6843999326229095e-02 1.1749400198459625e-01 0.0000000000000000e+00  7.7459998428821564e-02 1.9047999382019043e-01 0.0000000000000000e+00  7.7073000371456146e-02 2.0602799952030182e-01 0.0000000000000000e+00  7.6116003096103668e-02 2.0054100453853607e-01 0.0000000000000000e+00  -7.5550000183284283e-03 -3.7020001560449600e-02 0.0000000000000000e+00  6.9773003458976746e-02 1.1519800126552582e-01 0.0000000000000000e+00  6.9863997399806976e-02 1.2222799658775330e-01 0.0000000000000000e+00  7.3170997202396393e-02 1.2347000092267990e-01 0.0000000000000000e+00  7.3057003319263458e-02 1.1643400043249130e-01 0.0000000000000000e+00  6.9604001939296722e-02 1.1042799800634384e-01 0.0000000000000000e+00  6.7959003150463104e-02 1.0462500154972076e-01 0.0000000000000000e+00  8.2644000649452209e-02 1.3374300301074982e-01 0.0000000000000000e+00  7.9925000667572021e-02 1.2587399780750275e-01 0.0000000000000000e+00  8.3763003349304199e-02 1.3985300064086914e-01 0.0000000000000000e+00  8.1072002649307251e-02 1.3169300556182861e-01 0.0000000000000000e+00  6.8659998476505280e-02 9.9618002772331238e-02 0.0000000000000000e+00  7.0391997694969177e-02 1.0675700008869171e-01 0.0000000000000000e+00  7.4578002095222473e-02 1.1695700138807297e-01 0.0000000000000000e+00  7.6482996344566345e-02 1.2636299431324005e-01 0.0000000000000000e+00  7.9373002052307129e-02 1.3734799623489380e-01 0.0000000000000000e+00  8.0247998237609863e-02 1.3258899748325348e-01 0.0000000000000000e+00  7.2852000594139099e-02 1.0998299717903137e-01 0.0000000000000000e+00  -4.6943999826908112e-02 2.2696999832987785e-02 0.0000000000000000e+00  -5.2910998463630676e-02 8.5850004106760025e-03 0.0000000000000000e+00  -5.4770998656749725e-02 2.3876000195741653e-02 0.0000000000000000e+00  -3.6430999636650085e-02 6.6702999174594879e-02 0.0000000000000000e+00  -3.6660999059677124e-02 5.4852999746799469e-02 0.0000000000000000e+00  -4.3154999613761902e-02 4.9536000937223434e-02 0.0000000000000000e+00  -4.0231999009847641e-02 3.7078000605106354e-02 0.0000000000000000e+00  -6.7569002509117126e-02 -5.6379999965429306e-02 0.0000000000000000e+00  -5.3948000073432922e-02 -3.9257999509572983e-02 0.0000000000000000e+00  -5.8350998908281326e-02 -4.3058000504970551e-02 0.0000000000000000e+00  -6.8233996629714966e-02 -6.0077998787164688e-02 0.0000000000000000e+00  -9.8801001906394958e-02 -1.0230500251054764e-01 0.0000000000000000e+00  -1.3356399536132812e-01 -1.4094300568103790e-01 0.0000000000000000e+00  -1.3575300574302673e-01 -1.4440600574016571e-01 0.0000000000000000e+00  -1.4481699466705322e-01 -1.5143199265003204e-01 0.0000000000000000e+00  -8.0548003315925598e-02