<?xml version="1.0"?>
<VTKFile type="UnstructuredGrid"  version="0.1"  >
<UnstructuredGrid>
<Piece  NumberOfPoints="6340" NumberOfCells="12376">
<Points>
<DataArray  type="Float64"  NumberOfComponents="3"  format="ascii">-0.01958400011062622 0.02076900005340576 0  -0.02037600055336952 0.02148500084877014 0  -0.02057999931275845 0.02047999948263168 0  -0.02123700082302094 0.02132299914956093 0  -0.01979799941182137 0.01984300091862679 0  -0.01944700069725513 0.02165400050580502 0  -0.02003699913620949 0.0224469993263483 0  -0.01955500058829784 0.02324699983000755 0  -0.02059900015592575 0.02328299917280674 0  -0.01896899938583374 0.02236899919807911 0  -0.007811999879777431 0.01809299923479557 0  -0.008502000011503696 0.01892800070345402 0  -0.008828000165522099 0.01798699982464314 0  -0.00952600035816431 0.01885999925434589 0  -0.02573299966752529 0.07923799753189087 0  -0.02666099928319454 0.07980000227689743 0  -0.02683800086379051 0.07901699841022491 0  -0.02632799930870533 0.07259800285100937 0  -0.02694400027394295 0.07341700047254562 0  -0.02715199999511242 0.07253000140190125 0  -0.02787999995052814 0.07306999713182449 0  -0.01177399978041649 0.08972399681806564 0  -0.01268700044602156 0.08969900012016296 0  -0.01218799967318773 0.08889000117778778 0  -0.01962099969387054 0.084586001932621 0  -0.01861700043082237 0.08461499959230423 0  -0.01907199993729591 0.08543000370264053 0  -0.01916499994695187 0.08376800268888474 0  -0.02256100066006184 0.02505500055849552 0  -0.02159499935805798 0.02502500079572201 0  -0.02205299958586693 0.0259189996868372 0  -0.02246399968862534 0.0268159992992878 0  -0.02303699962794781 0.02596299909055233 0  -0.02107900008559227 0.02589300088584423 0  -0.02059799991548061 0.02499400079250336 0  -0.01958400011062622 0.0249600000679493 0  -0.02008200064301491 0.02585400082170963 0  -0.02209700085222721 0.02413799986243248 0  -0.02315500006079674 0.02423599921166897 0  -0.02245000004768372 0.02287999913096428 0  -0.02186099998652935 0.02212399989366531 0  -0.02160299941897392 0.02322199940681458 0  -0.02098800055682659 0.02236099913716316 0  -0.01604099944233894 0.02197100035846233 0  -0.01655999943614006 0.02109099924564362 0  -0.01549800019711256 0.02107900008559227 0  -0.01703000068664551 0.0220819991081953 0  -0.0180440004914999 0.02213400043547153 0  -0.01754599995911121 0.02300800010561943 0  0.04040199890732765 0.08315200358629227 0  0.04024399816989899 0.0822800025343895 0  0.04146600142121315 0.08257800340652466 0  0.041338000446558 0.09441699832677841 0  0.04205900058150291 0.09480100125074387 0  0.04105300083756447 0.09530500322580338 0  0.02487299963831902 0.103413000702858 0  0.02503100037574768 0.1024840027093887 0  0.02586299926042557 0.1029170006513596 0  0.02396400086581707 0.1038680002093315 0  0.02411399967968464 0.102742001414299 0  -0.006101000122725964 0.09798300266265869 0  -0.005233000032603741 0.09805700182914734 0  -0.005785000044852495 0.09885500371456146 0  -0.004908999893814325 0.09893500059843063 0  -0.01672700047492981 0.09932000190019608 0  -0.01709399931132793 0.09861499816179276 0  -0.01607500016689301 0.0987199991941452 0  -0.01763599924743176 0.09951599687337875 0  -0.01335700042545795 0.1051679998636246 0  -0.01358800008893013 0.1060440018773079 0  -0.014100999571383 0.1053389981389046 0  -0.009705999866127968 0.0971129983663559 0  -0.008879000321030617 0.0971129983663559 0  -0.00942699983716011 0.09792300313711166 0  -0.01053799968212843 0.09711199998855591 0  -0.009990000165998936 0.09630399942398071 0  -0.01082099974155426 0.09630300104618073 0  -0.01300999987870455 0.09948799759149551 0  -0.01351999957114458 0.1002629995346069 0  -0.01388000044971704 0.09946899861097336 0  -0.01192199997603893 0.09791199862957001 0  -0.01277900021523237 0.09790699928998947 0  -0.01222100015729666 0.0971049964427948 0  0.01135400030761957 0.09440600126981735 0  0.01231199968606234 0.09438099712133408 0  0.01175899989902973 0.09523200243711472 0  0.007511000148952007 0.07858700305223465 0  0.008077999576926231 0.07773800194263458 0  0.008469000458717346 0.07856100052595139 0  -0.00750999990850687 0.01721999980509281 0  -0.006680000107735395 0.01745199970901012 0  -0.008388999849557877 0.0170889999717474 0  -0.009306999854743481 0.01695200055837631 0  -0.01303000003099442 0.01685000024735928 0  -0.01330299954861403 0.01793400011956692 0  -0.01392100006341934 0.01703999936580658 0  -0.01245800033211708 0.01775299943983555 0  -0.0124930003657937 0.01878000050783157 0  -0.01162000000476837 0.01793600060045719 0  -0.0120449997484684 0.0217099990695715 0  -0.012533999979496 0.020754000172019 0  -0.01156899984925985 0.02079899981617928 0  -0.0110860001295805 0.01994599960744381 0  -0.01052900031208992 0.0207930002361536 0  -0.01205400004982948 0.0197989996522665 0  -0.01302400045096874 0.02172400057315826 0  -0.01449200045317411 0.02094599977135658 0  -0.01500899996608496 0.02191600017249584 0  -0.01400799956172705 0.02180599980056286 0  -0.009012999944388866 0.019811000674963 0  -0.01099899969995022 0.03071100078523159 0  -0.01151200011372566 0.02984100021421909 0  -0.01048700045794249 0.029789999127388 0  -0.005390000063925982 0.02951899915933609 0  -0.005894999951124191 0.03044299967586994 0  -0.006401999853551388 0.02957399934530258 0  -0.008034000173211098 0.01988999918103218 0  -0.005503000225871801 0.01937899924814701 0  -0.006498999893665314 0.01920099928975105 0  -0.00570600014179945 0.0185330007225275 0  -0.005783000029623508 0.01770300045609474 0  -0.004790000151842833 0.01798000000417233 0  0.04334200173616409 0.09047800302505493 0  0.0442660003900528 0.09005499631166458 0  0.04381600022315979 0.09111899882555008 0  0.04278900101780891 0.09122899919748306 0  0.01657200045883656 0.059494998306036 0  0.01760699972510338 0.05945099890232086 0  0.01712100021541119 0.06032000109553337 0  0.03038500063121319 0.04518099874258041 0  0.03087400086224079 0.04415500164031982 0  0.03132899850606918 0.04490200057625771 0  0.03238499909639359 0.04945800080895424 0  0.0333000011742115 0.04882600158452988 0  0.03361399844288826 0.04957599937915802 0  0.03203000128269196 0.0528549998998642 0  0.03109899908304214 0.05290399864315987 0  0.03164999932050705 0.05199899896979332 0  0.0312460009008646 0.05117300152778625 0  0.03224299848079681 0.05109899863600731 0  0.03068099915981293 0.0520629994571209 0  0.03013899922370911 0.05295699834823608 0  0.03023199923336506 0.05125999823212624 0  0.0297200009226799 0.05047100037336349 0  0.02921199984848499 0.05133000016212463 0  0.02868499979376793 0.05052400007843971 0  0.04077700152993202 0.09280300140380859 0  0.03978300094604492 0.09283100068569183 0  0.04034899920225143 0.09199400246143341 0  0.03937600180506706 0.09199000149965286 0  0.008473999798297882 0.0250220000743866 0  0.009242000058293343 0.02552000060677528 0  0.008472999557852745 0.02608600072562695 0  0.009310999885201454 0.02648100070655346 0  0.02818600088357925 0.05138500034809113 0  0.024125000461936 0.05324799939990044 0  0.02363399975001812 0.05411399900913239 0  0.0230919998139143 0.05328899994492531 0  0.0246569998562336 0.05407299846410751 0  0.03058400005102158 0.05379499867558479 0  0.01946200057864189 0.036336999386549 0  0.01856400072574615 0.03617300093173981 0  0.01899500004947186 0.0353039987385273 0  0.01384400017559528 0.04136399924755096 0  0.01289200037717819 0.04133599996566772 0  0.01336999982595444 0.04047000035643578 0  0.01241699978709221 0.04044200107455254 0  0.01193800009787083 0.04130600020289421 0  0.01193999964743853 0.03954600170254707 0  0.01289600040763617 0.03957699984312057 0  0.01336599979549646 0.04222999885678291 0  -0.0277549996972084 0.07393600046634674 0  -0.02665700018405914 0.07423000037670135 0  -0.02763999998569489 0.07472900301218033 0  -0.0259809996932745 0.07347500324249268 0  -0.02559399977326393 0.07428800314664841 0  -0.02456299960613251 0.07434900104999542 0  -0.02503900043666363 0.07513400167226791 0  -0.0239889994263649 0.07357099652290344 0  -0.02355300076305866 0.07439599931240082 0  -0.02406799979507923 0.0751819983124733 0  -0.02797400020062923 0.07217299938201904 0  -0.01852199994027615 0.08626800030469894 0  -0.01952599920332432 0.08624099940061569 0  -0.0171900000423193 0.09534499794244766 0  -0.01810199953615665 0.09536100178956985 0  -0.01758299954235554 0.09453800320625305 0  -0.0184909999370575 0.0945580005645752 0  -0.01798300072550774 0.09372799843549728 0  -0.01623000018298626 0.09792199730873108 0  -0.01538500003516674 0.09792699664831161 0  -0.01515000034123659 0.09872099757194519 0  -0.0131240002810955 0.08886399865150452 0  -0.01125799957662821 0.08234299719333649 0  -0.01025800034403801 0.08237399905920029 0  -0.01071500033140182 0.08318699896335602 0  -0.01019399985671043 0.084026999771595 0  -0.009728999808430672 0.08321499824523926 0  -0.0153379999101162 0.08053400367498398 0  -0.0158539991825819 0.07967600226402283 0  -0.01486300025135279 0.07971099764108658 0  -0.0138720003888011 0.07974500209093094 0  -0.01437500026077032 0.07889000326395035 0  -0.01816399954259396 0.08379899710416794 0  -0.01771200075745583 0.08297500014305115 0  -0.0187120009213686 0.08294200152158737 0  -0.0197139997035265 0.08291199803352356 0  -0.02461300045251846 0.07597699761390686 0  -0.02512600086629391 0.07843600213527679 0  -0.02469700016081333 0.07927399873733521 0  -0.02352900058031082 0.02495500072836876 0  -0.02388999983668327 0.02565000019967556 0  -0.02413900010287762 0.02634000033140182 0  -0.02440799959003925 0.02708300016820431 0  -0.02340999990701675 0.0268970001488924 0  -0.02009099908173084 0.02411600016057491 0  -0.01906700059771538 0.02406900003552437 0  -0.02111699990928173 0.02413100004196167 0  -0.02279200032353401 0.02353800088167191 0  -0.01750000007450581 0.0182499997317791 0  -0.01711799949407578 0.01901400089263916 0  -0.01830999925732613 0.01862999983131886 0  -0.01666899956762791 0.01786099933087826 0  -0.01851600036025047 0.02316500060260296 0  -0.01653899997472763 0.0229349993169
[...]
<PointData  Vectors="velocity"> 
<DataArray  type="Float64"  Name="velocity"  NumberOfComponents="3" format="ascii">5.2900001173838973e-04 5.0700001884251833e-04 0.0000000000000000e+00  3.2699998700991273e-04 3.2299998565576971e-04 0.0000000000000000e+00  0.0000000000000000e+00 1.5109999803826213e-03 0.0000000000000000e+00  -2.6500000967644155e-04 2.3070001043379307e-03 0.0000000000000000e+00  2.6000000070780516e-04 1.2509999796748161e-03 0.0000000000000000e+00  9.6799997845664620e-04 8.9299998944625258e-04 0.0000000000000000e+00  7.0099998265504837e-04 6.7099998705089092e-04 0.0000000000000000e+00  9.8600005730986595e-04 9.3799998285248876e-04 0.0000000000000000e+00  3.6400000681169331e-04 4.0799999260343611e-04 0.0000000000000000e+00  1.5109999803826213e-03 1.3429999817162752e-03 0.0000000000000000e+00  -7.3640001937747002e-03 -3.3000000257743523e-05 0.0000000000000000e+00  -3.0139998998492956e-03 2.7989998925477266e-03 0.0000000000000000e+00  -5.8659999631345272e-03 8.2100002327933908e-04 0.0000000000000000e+00  -3.8499999209307134e-04 3.8920000661164522e-03 0.0000000000000000e+00  -3.2609999179840088e-03 1.6309999627992511e-03 0.0000000000000000e+00  7.2880000807344913e-03 4.3019000440835953e-02 0.0000000000000000e+00  7.0540001615881920e-03 4.2314998805522919e-02 0.0000000000000000e+00  -1.9940000493079424e-03 -3.5739999730139971e-03 0.0000000000000000e+00  -2.4880000855773687e-03 5.3700001444667578e-04 0.0000000000000000e+00  -2.7540000155568123e-03 1.1569999624043703e-03 0.0000000000000000e+00  6.0439999215304852e-03 3.8531001657247543e-02 0.0000000000000000e+00  -4.9692001193761826e-02 -3.9514001458883286e-02 0.0000000000000000e+00  -4.3891999870538712e-02 -3.0844999477267265e-02 0.0000000000000000e+00  -5.6306999176740646e-02 -4.0720999240875244e-02 0.0000000000000000e+00  -2.6458000764250755e-02 -1.4950999990105629e-02 0.0000000000000000e+00  -3.2876998186111450e-02 -2.1788999438285828e-02 0.0000000000000000e+00  -2.7464000508189201e-02 -1.3263000175356865e-02 0.0000000000000000e+00  -2.9842000454664230e-02 -2.3262999951839447e-02 0.0000000000000000e+00  -3.3700000494718552e-04 -8.9000001025851816e-05 0.0000000000000000e+00  -5.1500002155080438e-04 -1.7400000069756061e-04 0.0000000000000000e+00  -8.5499999113380909e-04 -2.8700000257231295e-04 0.0000000000000000e+00  -1.3419999741017818e-03 -4.4999999227002263e-04 0.0000000000000000e+00  -6.0899998061358929e-04 -1.8800000543706119e-04 0.0000000000000000e+00  -1.0169999441131949e-03 -3.1500001205131412e-04 0.0000000000000000e+00  -3.5099999513477087e-04 2.9999999242136255e-05 0.0000000000000000e+00  1.0499999916646630e-04 4.3899999582208693e-04 0.0000000000000000e+00  -8.8700000196695328e-04 -1.3299999409355223e-04 0.0000000000000000e+00  -1.7100000695791095e-04 -3.9999998989515007e-05 0.0000000000000000e+00  -1.4949999749660492e-03 5.2570002153515816e-03 0.0000000000000000e+00  -7.5599999399855733e-04 3.7779998965561390e-03 0.0000000000000000e+00  -5.1699997857213020e-04 3.0630000401288271e-03 0.0000000000000000e+00  5.9999998484272510e-05 1.1600000289035961e-04 0.0000000000000000e+00  2.3700000019744039e-04 2.5300000561401248e-04 0.0000000000000000e+00  5.5010002106428146e-03 4.3489998206496239e-03 0.0000000000000000e+00  4.2719999328255653e-03 3.4779999405145645e-03 0.0000000000000000e+00  5.7199997827410698e-03 4.5440001413226128e-03 0.0000000000000000e+00  3.8540000095963478e-03 3.1340001150965691e-03 0.0000000000000000e+00  2.4590000975877047e-03 2.0880000665783882e-03 0.0000000000000000e+00  3.0100001022219658e-03 2.4920001160353422e-03 0.0000000000000000e+00  4.5182999223470688e-02 1.0188400000333786e-01 0.0000000000000000e+00  4.3481998145580292e-02 1.0149099677801132e-01 0.0000000000000000e+00  1.4355000108480453e-02 5.3640998899936676e-02 0.0000000000000000e+00  8.1630004569888115e-03 7.6819002628326416e-02 0.0000000000000000e+00  6.4139999449253082e-03 7.1850001811981201e-02 0.0000000000000000e+00  -1.0890000266954303e-03 7.3265999555587769e-02 0.0000000000000000e+00  -1.6988199949264526e-01 -4.3088000267744064e-02 0.0000000000000000e+00  -1.5994299948215485e-01 -4.0107000619173050e-02 0.0000000000000000e+00  -1.6372300684452057e-01 -3.4012001007795334e-02 0.0000000000000000e+00  -1.7292399704456329e-01 -5.0168000161647797e-02 0.0000000000000000e+00  -1.6305699944496155e-01 -4.7993000596761703e-02 0.0000000000000000e+00  -2.3801999166607857e-02 -7.0178002119064331e-02 0.0000000000000000e+00  -2.7859000489115715e-02 -8.0588996410369873e-02 0.0000000000000000e+00  -2.4528000503778458e-02 -6.9880999624729156e-02 0.0000000000000000e+00  -2.8928000479936600e-02 -8.0062001943588257e-02 0.0000000000000000e+00  9.5840003341436386e-03 1.9898999482393265e-02 0.0000000000000000e+00  1.0177999734878540e-02 2.0928999409079552e-02 0.0000000000000000e+00  8.6620002985000610e-03 1.8510999158024788e-02 0.0000000000000000e+00  2.3457000032067299e-02 4.7860998660326004e-02 0.0000000000000000e+00  3.3170001115649939e-03 8.4889996796846390e-03 0.0000000000000000e+00  4.4541999697685242e-02 5.3927000612020493e-02 0.0000000000000000e+00  4.1042998433113098e-02 5.3387999534606934e-02 0.0000000000000000e+00  -1.2234999798238277e-02 -3.0422000214457512e-02 0.0000000000000000e+00  -1.5186999924480915e-02 -3.9567999541759491e-02 0.0000000000000000e+00  -1.0080999694764614e-02 -3.0667999759316444e-02 0.0000000000000000e+00  -9.2310002073645592e-03 -2.1196000277996063e-02 0.0000000000000000e+00  -1.2439000420272350e-02 -2.9757000505924225e-02 0.0000000000000000e+00  -9.8059996962547302e-03 -2.0225999876856804e-02 0.0000000000000000e+00  2.9390000272542238e-03 4.1390000842511654e-03 0.0000000000000000e+00  5.2009997889399529e-03 8.0679999664425850e-03 0.0000000000000000e+00  4.9820002168416977e-03 9.4419997185468674e-03 0.0000000000000000e+00  -1.7879999941214919e-03 -6.3060000538825989e-03 0.0000000000000000e+00  6.6999997943639755e-04 5.6399998720735312e-04 0.0000000000000000e+00  -3.3879999537020922e-03 -5.6250002235174179e-03 0.0000000000000000e+00  -7.8115999698638916e-02 -1.1324799805879593e-01 0.0000000000000000e+00  -7.6770998537540436e-02 -1.0461299866437912e-01 0.0000000000000000e+00  -7.9355999827384949e-02 -1.1572100222110748e-01 0.0000000000000000e+00  -2.0123999565839767e-02 -5.9930000454187393e-02 0.0000000000000000e+00  -7.2630001232028008e-03 -5.3022000938653946e-02 0.0000000000000000e+00  -1.6103999689221382e-02 -5.0689999014139175e-02 0.0000000000000000e+00  6.8000000901520252e-03 -7.5599999399855733e-04 0.0000000000000000e+00  7.4909999966621399e-03 -2.9500000528059900e-04 0.0000000000000000e+00  6.0749999247491360e-03 -9.9700002465397120e-04 0.0000000000000000e+00  5.3190002217888832e-03 -1.2489999644458294e-03 0.0000000000000000e+00  3.0219999607652426e-03 -1.5109999803826213e-03 0.0000000000000000e+00  1.2339999666437507e-03 1.2799999676644802e-03 0.0000000000000000e+00  2.5269999168813229e-03 -1.2639999622479081e-03 0.0000000000000000e+00  1.0110000148415565e-03 1.3899999903514981e-03 0.0000000000000000e+00  2.9289999511092901e-03 3.0900000128895044e-03 0.0000000000000000e+00  7.6199998147785664e-04 1.8449999624863267e-03 0.0000000000000000e+00  8.8210003450512886e-03 9.0300003066658974e-03 0.0000000000000000e+00  7.4109998531639576e-03 6.8870000541210175e-03 0.0000000000000000e+00  7.4490001425147057e-03 7.9290000721812248e-03 0.0000000000000000e+00  5.0579998642206192e-03 6.3579999841749668e-03 0.0000000000000000e+00  6.5680001862347126e-03 8.5739996284246445e-03 0.0000000000000000e+00  5.2689998410642147e-03 5.4239998571574688e-03 0.0000000000000000e+00  8.6770001798868179e-03 7.8199999406933784e-03 0.0000000000000000e+00  6.6260001622140408e-03 5.3079999051988125e-03 0.0000000000000000e+00  7.0549999363720417e-03 5.5740000680088997e-03 0.0000000000000000e+00  8.1359995529055595e-03 6.7309997975826263e-03 0.0000000000000000e+00  2.0429999567568302e-03 5.9139998629689217e-03 0.0000000000000000e+00  -8.7810000404715538e-03 1.4875000342726707e-02 0.0000000000000000e+00  -9.9029997363686562e-03 1.7157999798655510e-02 0.0000000000000000e+00  -7.6480000279843807e-03 1.6063999384641647e-02 0.0000000000000000e+00  1.2870999984443188e-02 -9.2500001192092896e-03 0.0000000000000000e+00  1.3454000465571880e-02 -1.0728999972343445e-02 0.0000000000000000e+00  8.0540003255009651e-03 -4.4269999489188194e-03 0.0000000000000000e+00  4.1599999531172216e-04 4.1809999383985996e-03 0.0000000000000000e+00  -6.8819997832179070e-03 -6.3450001180171967e-03 0.0000000000000000e+00  -6.0189999639987946e-03 -2.5080000050365925e-03 0.0000000000000000e+00  -7.0480001159012318e-03 -5.3679998964071274e-03 0.0000000000000000e+00  8.2390001043677330e-03 2.0399999630171806e-04 0.0000000000000000e+00  9.0659996494650841e-03 7.5599999399855733e-04 0.0000000000000000e+00  3.1314000487327576e-02 7.9328998923301697e-02 0.0000000000000000e+00  2.9868999496102333e-02 7.2824999690055847e-02 0.0000000000000000e+00  2.8560999780893326e-02 7.4717998504638672e-02 0.0000000000000000e+00  2.9374999925494194e-02 8.1225998699665070e-02 0.0000000000000000e+00  8.7186999619007111e-02 3.2749000936746597e-02 0.0000000000000000e+00  8.5529997944831848e-02 4.3377000838518143e-02 0.0000000000000000e+00  8.8276997208595276e-02 4.0091000497341156e-02 0.0000000000000000e+00  2.2114999592304230e-02 3.1162999570369720e-02 0.0000000000000000e+00  3.7574999034404755e-02 3.5585999488830566e-02 0.0000000000000000e+00  3.8065999746322632e-02 3.6322001367807388e-02 0.0000000000000000e+00  2.0938999950885773e-02 4.5324001461267471e-02 0.0000000000000000e+00  3.8757998496294022e-02 3.8568999618291855e-02 0.0000000000000000e+00  3.8284000009298325e-02 3.9278998970985413e-02 0.0000000000000000e+00  2.6450999081134796e-02 6.9233998656272888e-02 0.0000000000000000e+00  3.0966000631451607e-02 7.5627997517585754e-02 0.0000000000000000e+00  2.7480000630021095e-02 6.6436998546123505e-02 0.0000000000000000e+00  2.8973000124096870e-02 6.3621997833251953e-02 0.0000000000000000e+00  2.3739999160170555e-02 5.6635998189449310e-02 0.0000000000000000e+00  3.2620999962091446e-02 7.2682999074459076e-02 0.0000000000000000e+00  3.5813000053167343e-02 8.1248000264167786e-02 0.0000000000000000e+00  3.4244000911712646e-02 7.0076003670692444e-02 0.0000000000000000e+00  3.6150999367237091e-02 6.7663997411727905e-02 0.0000000000000000e+00  3.9586998522281647e-02 7.5203001499176025e-02 0.0000000000000000e+00  4.1721999645233154e-02 7.2307996451854706e-02 0.0000000000000000e+00  2.0958999171853065e-02 8.7011002004146576e-02 0.0000000000000000e+00  2.0155999809503555e-02 9.0986996889114380e-02 0.0000000000000000e+00  2.6684999465942383e-02 9.2437997460365295e-02 0.0000000000000000e+00  2.6667999103665352e-02 9.6611000597476959e-02 0.0000000000000000e+00  2.1857999265193939e-02 1.2791000306606293e-02 0.0000000000000000e+00  2.2614000365138054e-02 1.3547999784350395e-02 0.0000000000000000e+00  1.0970000177621841e-02 5.8229998685419559e-03 0.0000000000000000e+00  1.1673999950289726e-02 6.4139999449253082e-03 0.0000000000000000e+00  4.4766999781131744e-02 7.8289002180099487e-02 0.0000000000000000e+00  6.1801001429557800e-02 8.0923996865749359e-02 0.0000000000000000e+00  6.3623003661632538e-02 8.0937996506690979e-02 0.0000000000000000e+00  6.4730003476142883e-02 7.5373999774456024e-02 0.0000000000000000e+00  6.0377001762390137e-02 8.6130000650882721e-02 0.0000000000000000e+00  3.4366000443696976e-02 8.4064997732639313e-02 0.0000000000000000e+00  3.6979001015424728e-02 2.4029999971389771e-02 0.0000000000000000e+00  3.9818000048398972e-02 2.4606000632047653e-02 0.0000000000000000e+00  3.2953999936580658e-02 2.0312000066041946e-02 0.0000000000000000e+00  6.4516998827457428e-02 2.4248000234365463e-02 0.0000000000000000e+00  6.4076997339725494e-02 2.2190999239683151e-02 0.0000000000000000e+00  6.3836000859737396e-02 2.4597000330686569e-02 0.0000000000000000e+00  6.3529998064041138e-02 2.3174000903964043e-02 0.0000000000000000e+00  6.3467003405094147e-02 2.0684000104665756e-02 0.0000000000000000e+00  6.2341999262571335e-02 2.4234000593423843e-02 0.0000000000000000e+00  6.2318000942468643e-02 2.5219000875949860e-02 0.0000000000000000e+00  6.4442999660968781e-02 2.1351000294089317e-02 0.0000000000000000e+00  6.3000000081956387e-03 3.8786999881267548e-02 0.0000000000000000e+00  -1.8279999494552612e-03 -7.1000002208165824e-05 0.0000000000000000e+00  6.5339999273419380e-03 3.9019998162984848e-02 0.0000000000000000e+00  -2.2730000782757998e-03 -5.6010000407695770e-03 0.0000000000000000e+00  -2.1860001143068075e-03 -7.6560000889003277e-03 0.0000000000000000e+00  -2.8170000296086073e-03 -1.5750000253319740e-02 0.0000000000000000e+00  -2.2650000173598528e-03 -1.0285999625921249e-02 0.0000000000000000e+00  -2.9050000011920929e-03 -2.2329999133944511e-02 0.0000000000000000e+00  -4.0790000930428505e-03 -2.5392999872565269e-02 0.0000000000000000e+00  -3.5739999730139971e-03 -1.8911000341176987e-02 0.0000000000000000e+00  5.7799997739493847e-03 3.7739999592304230e-02 0.0000000000000000e+00  -2.6123000308871269e-02 -1.0851000435650349e-02 0.0000000000000000e+00  -2.0003000274300575e-02 -5.1389997825026512e-03 0.0000000000000000e+00  6.3479999080300331e-03 1.9845999777317047e-02 0.0000000000000000e+00  8.3729997277259827e-03 2.2244000807404518e-02 0.0000000000000000e+00  6.0879997909069061e-03 2.0239999517798424e-02 0.0000000000000000e+00  8.5249999538064003e-03 2.2190000861883163e-02 0.0000000000000000e+00  2.7409999165683985e-03 1.9244000315666199e-02 0.0000000000000000e+00  8.6070001125335693e-03 1.8743999302387238e-02 0.0000000000000000e+00  6.9459998048841953e-03 1.5675000846385956e-02 0.0000000000000000e+00  6.9039999507367611e-03 1.4770999550819397e-02 0.0000000000000000e+00  -5.0221998244524002e-02 -3.2811000943183899e-02 0.0000000000000000e+00  -9.0769000351428986e-02 -9.5205999910831451e-02 0.0000000000000000e+00  -9.6493996679782867e-02 -1.0054299980401993e-01 0.0000000000000000e+00  -9.4898000359535217e-02 -9.2759996652603149e-02 0.0000000000000000e+00  -9.5955997705459595e-02 -9.0525999665260315e-02 0.0000000000000000e+00  -1.0102400183677673e-01 -9.8544001579284668e-02 0.0000000000000000e+00  -5.6650001555681229e-02 -7.9697996377944946e-02 0.0000000000000000e+00  -4.9779001623392105e-02 -8.1469997763633728e-02 0.0000000000000000e+00  -5.6641001254320145e-02 -8.9571997523307800e-02 0.0000000000000000e+00  -6.3266001641750336e-02 -9.6513003110885620e-02 0.0000000000000000e+00  -5.5509999394416809e-02 -9.8747998476028442e-02 0.0000000000000000e+00  -3.6612000316381454e-02 -3.0662000179290771e-02 0.0000000000000000e+00  -4.0075000375509262e-02 -4.0203001350164413e-02 0.0000000000000000e+00  -3.3032000064849854e-02 -3.2267000526189804e-02 0.0000000000000000e+00  -2.6519000530242920e-02 -2.4524999782443047e-02 0.0000000000000000e+00  -3.1240000389516354e-03 -1.2578000314533710e-02 0.0000000000000000e+00  -4.2790002189576626e-03 -3.8280000444501638e-03 0.0000000000000000e+00  -5.1620001904666424e-03 -4.2880000546574593e-03 0.0000000000000000e+00  -1.8870000494644046e-03 6.0410001315176487e-03 0.0000000000000000e+00  -2.2670000325888395e-03 6.8000000901520252e-03 0.0000000000000000e+00  -2.4429999757558107e-03 7.3279999196529388e-03 0.0000000000000000e+00  -2.6320000179111958e-03 7.8959995880723000e-03 0.0000000000000000e+00  -6.7600002512335777e-04 -2.3000000510364771e-05 0.0000000000000000e+00  3.6199999158270657e-04 4.9100001342594624e-04 0.0000000000000000e+00  1.0499999625608325e-03 1.0529999854043126e-03 0.0000000000000000e+00  -5.0999999075429514e-05 1.0900000052060932e-04 0.0000000000000000e+00  -1.1139999842271209e-03 4.4950000010430813e-03 0.0000000000000000e+00  9.9500000942498446e-04 2.7700001373887062e-04 0.0000000000000000e+00  1.4690000098198652e-03 1.3269999762997031e-03 0.0000000000000000e+00  7.5599999399855733e-04 7.5599999399855733e-04 0.0000000000000000e+00  1.2400000123307109e-03 -2.1300000662449747e-04 0.0000000000000000e+00  1.8779999809339643e-03 1.6410000389441848e-03 0.0000000000000000e+00  4.4760000891983509e-03 3.5890000872313976e-03 0.0000000000000000e+00  4.6799997799098492e-03 4.0219998918473721e-03 0.0000000000000000e+00  3.2840000931173563e-03 2.7749999426305294e-03 0.0000000000000000e+00  -1.1113000102341175e-02 1.5398000366985798e-02 0.0000000000000000e+00  -9.1629996895790100e-03 1.2605999596416950e-02 0.0000000000000000e+00  -1.1520000174641609e-02 1.3012999668717384e-02 0.0000000000000000e+00  8.4819998592138290e-03 1.0177999734878540e-02 0.0000000000000000e+00  7.6009999029338360e-03 1.4054000377655029e-02 0.0000000000000000e+00  5.5109998211264610e-03 1.4941999688744545e-02 0.0000000000000000e+00  6.5819998271763325e-03 1.5564000234007835e-02 0.0000000000000000e+00  6.1519998125731945e-03 1.2601999565958977e-02 0.0000000000000000e+00  7.3359999805688858e-03 1.2020000256597996e-02 0.0000000000000000e+00  2.9060000088065863e-03 1.4615999534726143e-02 0.0000000000000000e+00  6.2499998603016138e-04 1.2945000082254410e-02 0.0000000000000000e+00  1.3800000306218863e-04 1.6383999958634377e-02 0.0000000000000000e+00  2.1779000759124756e-02 6.9898001849651337e-02 0.0000000000000000e+00  1.9349999725818634e-02 6.2031999230384827e-02 0.0000000000000000e+00  1.6202999278903008e-02 6.5713003277778625e-02 0.0000000000000000e+00  4.0761001408100128e-02 1.0422799736261368e-01 0.0000000000000000e+00  3.6596998572349548e-02 9.8964996635913849e-02 0.0000000000000000e+00  3.7216998636722565e-02 1.0339199751615524e-01 0.0000000000000000e+00  5.8586001396179199e-02 1.3435000181198120e-01 0.0000000000000000e+00  5.8442000299692154e-02 1.3722699880599976e-01 0.0000000000000000e+00  5.9964999556541443e-02 1.3839599490165710e-01 0.0000000000000000e+00  1.4355000108480453e-02 5.3640998899936676e-02 0.0000000000000000e+00  -1.8124999478459358e-02 7.2483003139495850e-02 0.0000000000000000e+00  -2.7607999742031097e-02 7.0849999785423279e-02 0.0000000000000000e+00  -1.3419999741017818e-02 7.6857998967170715e-02 0.0000000000000000e+00  -4.1249999776482582e-03 7.8892998397350311e-02 0.0000000000000000e+00  -1.1854999698698521e-02 7.3459997773170471e-02 0.0000000000000000e+00  -6.0580000281333923e-03 7.4047997593879700e-02 0.0000000000000000e+00  2.6491999626159668e-02 9.9960997700691223e-02 0.0000000000000000e+00  3.2620999962091446e-02 1.0226599872112274e-01 0.0000000000000000e+00  3.2770998775959015e-02 1.0554700344800949e-01 0.0000000000000000e+00  3.8175001740455627e-02 1.0792300105094910e-01 0.0000000000000000e+00  1.4322999864816666e-02 8.1546001136302948e-02 0.0000000000000000e+00  4.5030000619590282e-03 7.9630002379417419e-02 0.0000000000000000e+00  5.6989998556673527e-03 8.3982996642589569e-02 0.0000000000000000e+00  1.8400000408291817e-04 8.3683997392654419e-02 0.0000000000000000e+00  3.4800000139512122e-04 8.6157001554965973e-02 0.0000000000000000e+00  9.8759997636079788e-03 8.9927002787590027e-02 0.0000000000000000e+00  1.3388000428676605e-02 8.5389003157615662e-02 0.0000000000000000e+00  -1.7595699429512024e-01 -6.3456997275352478e-02 0.0000000000000000e+00  -1.7516399919986725e-01 -6.8469002842903137e-02 0.0000000000000000e+00  -1.7317600548267365e-01 -6.9528996944427490e-02 0.0000000000000000e+00  -1.6099999845027924e-01 -5.5355001240968704e-02 0.0000000000000000e+00  -1.6927100718021393e-01 -5.4191999137401581e-02 0.0000000000000000e+00  -1.6856800019741058e-01 -6.0603998601436615e-02 0.0000000000000000e+00  -1.7546899616718292e-01 -5.7349998503923416e-02 0.0000000000000000e+00  -1.6547000035643578e-02 -4.9867998808622360e-02 0.0000000000000000e+00  -1.3217000290751457e-02 -4.0157999843358994e-02 0.0000000000000000e+00  -1.3172999955713749e-02 -3.9737001061439514e-02 0.0000000000000000e+00  -1.8333999440073967e-02 -4.9697000533342361e-02 0.0000000000000000e+00  -2.8762999922037125e-02 -8.0848999321460724e-02 0.0000000000000000e+00  -5.2228998392820358e-02 -1.1905500292778015e-01 0.0000000000000000e+00  -4.8461001366376877e-02 -1.2037499994039536e-01 0.0000000000000000e+00  -5.5311001837253571e-02 -1.2905399501323700e-01 0.0000000000000000e+00  