<?xml version="1.0"?>
<VTKFile type="UnstructuredGrid"  version="0.1"  >
<UnstructuredGrid>
<Piece  NumberOfPoints="6340" NumberOfCells="12376">
<Points>
<DataArray  type="Float64"  NumberOfComponents="3"  format="ascii">-0.01917899958789349 0.02065300010144711 0  -0.01976599916815758 0.02126800082623959 0  -0.02001000009477139 0.0203000009059906 0  -0.02046000026166439 0.02097499929368496 0  -0.01942100003361702 0.01973900012671947 0  -0.01900400035083294 0.02152200043201447 0  -0.01941899955272675 0.02221900038421154 0  -0.01897200010716915 0.02304299920797348 0  -0.01979400031268597 0.022902000695467 0  -0.01856300048530102 0.02225200086832047 0  -0.00901500042527914 0.01757100038230419 0  -0.009616999886929989 0.01848600059747696 0  -0.009952000342309475 0.01754700019955635 0  -0.01056000031530857 0.01850200071930885 0  -0.02381899952888489 0.07055199891328812 0  -0.02470199950039387 0.07079599797725677 0  -0.02484500035643578 0.07004299759864807 0  -0.02401700057089329 0.0644180029630661 0  -0.02464799955487251 0.0649849995970726 0  -0.0247809998691082 0.06412599980831146 0  -0.02549999952316284 0.064410001039505 0  -0.01169699989259243 0.08298400044441223 0  -0.01252000033855438 0.08275099843740463 0  -0.01197300013154745 0.08224400132894516 0  -0.01828099973499775 0.07693299651145935 0  -0.01735799945890903 0.077224001288414 0  -0.01783400028944016 0.07778000086545944 0  -0.01781000010669231 0.07636900246143341 0  -0.02118599973618984 0.02410300076007843 0  -0.02043600007891655 0.02433500066399574 0  -0.02071399986743927 0.02499900013208389 0  -0.0209560003131628 0.02567699924111366 0  -0.02147700078785419 0.02477400004863739 0  -0.01995700038969517 0.02523699961602688 0  -0.0196519996970892 0.0244939997792244 0  -0.01885399967432022 0.02463000081479549 0  -0.01917300000786781 0.02537900023162365 0  -0.02090400084853172 0.02342100068926811 0  -0.02172099985182285 0.02322399988770485 0  -0.02129000052809715 0.02222000062465668 0  -0.02088700048625469 0.02161500044167042 0  -0.02059200033545494 0.02267899923026562 0  -0.02017699927091599 0.02198100090026855 0  -0.01617899909615517 0.02199899964034557 0  -0.01667200028896332 0.02112199924886227 0  -0.01577199995517731 0.02109899930655956 0  -0.01700899936258793 0.02211499959230423 0  -0.01782899908721447 0.02209199965000153 0  -0.01736100018024445 0.02297599986195564 0  0.04010400176048279 0.07560999691486359 0  0.0398470014333725 0.07473699748516083 0  0.04106900095939636 0.07478400319814682 0  0.0421609990298748 0.08574000000953674 0  0.04289500042796135 0.08594299852848053 0  0.04181399941444397 0.08640500158071518 0  0.02441499941051006 0.09383100271224976 0  0.02463099919259548 0.09314999729394913 0  0.02547900006175041 0.0933770015835762 0  0.02343700081110001 0.09424799680709839 0  0.02365599945187569 0.09342599660158157 0  -0.007499000057578087 0.09077200293540955 0  -0.006719999946653843 0.09104900062084198 0  -0.007309000007808208 0.09153400361537933 0  -0.006517999805510044 0.09181500226259232 0  -0.01721099950373173 0.08918900042772293 0  -0.01747900061309338 0.08856199681758881 0  -0.01655399985611439 0.08888000249862671 0  -0.01806600019335747 0.08912699669599533 0  -0.01479400042444468 0.09454400092363358 0  -0.01510700024664402 0.09517300128936768 0  -0.01547100022435188 0.09448900073766708 0  -0.01057500019669533 0.08916399627923965 0  -0.009841999970376492 0.08937299996614456 0  -0.01042599976062775 0.08986800163984299 0  -0.01132399961352348 0.0889580026268959 0  -0.01073999982327223 0.08846399933099747 0  -0.0114900004118681 0.08825899660587311 0  -0.01381599996238947 0.09019699692726135 0  -0.01436199992895126 0.09067399799823761 0  -0.01460499968379736 0.08997300267219543 0  -0.01266099978238344 0.08923900127410889 0  -0.01344200037419796 0.08902999758720398 0  -0.01285200007259846 0.08854400366544724 0  0.01073700003325939 0.08872800320386887 0  0.01174299977719784 0.08861400187015533 0  0.01111599989235401 0.08928000181913376 0  0.007571000140160322 0.07777699828147888 0  0.008077999576926231 0.07695599645376205 0  0.008576000109314919 0.07766299694776535 0  -0.00877000018954277 0.01665000058710575 0  -0.008012999780476093 0.0168089997023344 0  -0.009581999853253365 0.01658900082111359 0  -0.01042999979108572 0.01652600057423115 0  -0.01381999999284744 0.01669999957084656 0  -0.01401100028306246 0.0178190004080534 0  -0.01460000034421682 0.01694200001657009 0  -0.01326499972492456 0.01758299954235554 0  -0.01325500011444092 0.01863599941134453 0  -0.01249799970537424 0.01771000027656555 0  -0.01272299978882074 0.02159499935805798 0  -0.01319999992847443 0.02064800076186657 0  -0.01233599986881018 0.02063599973917007 0  -0.01193299982696772 0.01972799934446812 0  -0.01139399968087673 0.02055500075221062 0  -0.01281700003892183 0.0196480005979538 0  -0.01358900032937527 0.0216630008071661 0  -0.01492299977689981 0.02095199935138226 0  -0.01530800014734268 0.02193300053477287 0  -0.01445600017905235 0.02180000022053719 0  -0.01005300041288137 0.01943499967455864 0  -0.01138000003993511 0.03070399910211563 0  -0.01187399961054325 0.02984599955379963 0  -0.0109689999371767 0.02973799966275692 0  -0.006364000029861927 0.02909299917519093 0  -0.006794000044465065 0.03008300065994263 0  -0.007290999870747328 0.02923399955034256 0  -0.00915099959820509 0.0194339994341135 0  -0.006874999962747097 0.01867800019681454 0  -0.007778000086545944 0.01859099976718426 0  -0.007091999985277653 0.01782700046896935 0  -0.007195000071078539 0.01697999984025955 0  -0.006289999932050705 0.01717000082135201 0  0.04426899924874306 0.08248999714851379 0  0.04504099860787392 0.08185300230979919 0  0.04486500099301338 0.08304999768733978 0  0.04385599866509438 0.08331099897623062 0  0.01417599990963936 0.05716300010681152 0  0.01514900010079145 0.05687199905514717 0  0.01477599982172251 0.05782800167798996 0  0.02583199925720692 0.04002299904823303 0  0.02618799917399883 0.03892000019550323 0  0.02670699916779995 0.0395210012793541 0  0.02827100083231926 0.04360000044107437 0  0.02908400073647499 0.0427669994533062 0  0.0294829998165369 0.04340999945998192 0  0.02834499999880791 0.04696400091052055 0  0.0274449996650219 0.04722899943590164 0  0.02786999940872192 0.0462229996919632 0  0.02737399935722351 0.04552900046110153 0  0.02833499945700169 0.0452129989862442 0  0.02693399973213673 0.04652399942278862 0  0.02651599980890751 0.04751700162887573 0  0.02639699913561344 0.04586299881339073 0  0.02580299973487854 0.04523900151252747 0  0.02541299909353256 0.04618500173091888 0  0.02480500005185604 0.04555400088429451 0  0.04166100174188614 0.08463899791240692 0  0.04061799868941307 0.08475899696350098 0  0.04125599935650826 0.08410300314426422 0  0.04023699834942818 0.08419699966907501 0  0.005257999990135431 0.02270700037479401 0  0.005913000088185072 0.02313500083982944 0  0.005307999905198812 0.02380800060927868 0  0.006016000173985958 0.02412199974060059 0  0.02442499995231628 0.04650000110268593 0  0.02071600034832954 0.04930799826979637 0  0.02034099958837032 0.05025999993085861 0  0.01972899958491325 0.04960599914193153 0  0.02132200077176094 0.04996300116181374 0  0.02705200016498566 0.04821899905800819 0  0.01513899955898523 0.033330999314785 0  0.01434400025755167 0.03326800093054771 0  0.01466900017112494 0.03232099860906601 0  0.0105560002848506 0.03913399949669838 0  0.009740999899804592 0.03919000178575516 0  0.01010300032794476 0.03824799880385399 0  0.009286999702453613 0.03830499947071075 0  0.008925000205636024 0.03924600034952164 0  0.008839000016450882 0.0374159999191761 0  0.009650000371038914 0.03736300021409988 0  0.01019399985671043 0.04007700085639954 0  -0.02543899975717068 0.06522200256586075 0  -0.02443300001323223 0.06579399853944778 0  -0.02538299933075905 0.06596499681472778 0  -0.02375400066375732 0.06530699878931046 0  -0.02344400063157082 0.06614500284194946 0  -0.0224859993904829 0.06649000197649002 0  -0.02298099920153618 0.06706000119447708 0  -0.02190000005066395 0.06595399975776672 0  -0.02154600061476231 0.06681600213050842 0  -0.02207699976861477 0.06737600266933441 0  -0.02552399970591068 0.063571996986866 0  -0.0173920001834631 0.0786139965057373 0  -0.01830700039863586 0.07833400368690491 0  -0.01723000034689903 0.08603399991989136 0  -0.01805800013244152 0.08583399653434753 0  -0.01749699935317039 0.0853239968419075 0  -0.01832100003957748 0.08512900024652481 0  -0.01776699908077717 0.08460800349712372 0  -0.01661800034344196 0.08823200315237045 0  -0.01584200002253056 0.08843199908733368 0  -0.0157030001282692 0.0890979990363121 0  -0.01281100045889616 0.0820000022649765 0  -0.0104179996997118 0.07728800177574158 0  -0.009499000385403633 0.07757899910211563 0  -0.009984999895095825 0.07812400162220001 0  -0.009592999704182148 0.07893200218677521 0  -0.009089999832212925 0.07839799672365189 0  -0.01413400005549192 0.07461799681186676 0  -0.01460099965333939 0.07371599972248077 0  -0.01367499958723783 0.07402399927377701 0  -0.01274900045245886 0.07433100044727325 0  -0.01320100016891956 0.07343199849128723 0  -0.01688399910926819 0.076664999127388 0  -0.01642699912190437 0.07608400285243988 0  -0.01735799945890903 0.0757799968123436 0  -0.01829000003635883 0.0754769966006279 0  -0.02263399958610535 0.06793700158596039 0  -0.02322899922728539 0.07000400125980377 0  -0.02285300008952618 0.07087499648332596 0  -0.02194900065660477 0.02375500090420246 0  -0.02216999977827072 0.02426999993622303 0  -0.02230500057339668 0.02476399950683117 0  -0.02245100028812885 0.02529600076377392 0  -0.02168699912726879 0.02548000030219555 0  -0.01932300068438053 0.02376200072467327 0  -0.01851800084114075 0.02388899959623814 0  -0.02013400010764599 0.02360500022768974 0  -0.02149900048971176 0.02270700037479401 0  -0.01763599924743176 0.01828099973499775 0  -0.01726599968969822 0.01904300041496754 0  -0.01830000057816505 0.01867000013589859 0  -0.01695399917662144 0.0178810004144907 0  -0.01813800074160099 0.02305799908936024 0  -0.01
[...]
<PointData  Vectors="velocity"> 
<DataArray  type="Float64"  Name="velocity"  NumberOfComponents="3" format="ascii">4.3500000610947609e-03 4.0339999832212925e-03 0.0000000000000000e+00  4.5759999193251133e-03 4.2489999905228615e-03 0.0000000000000000e+00  1.5109999803826213e-03 0.0000000000000000e+00 0.0000000000000000e+00  2.0419999491423368e-03 -7.9600000753998756e-04 0.0000000000000000e+00  1.2509999796748161e-03 2.6000000070780516e-04 0.0000000000000000e+00  8.7789995595812798e-03 7.7390000224113464e-03 0.0000000000000000e+00  1.0080000385642052e-02 8.7999999523162842e-03 0.0000000000000000e+00  1.5867000445723534e-02 1.3043000362813473e-02 0.0000000000000000e+00  1.0688000358641148e-02 9.2289997264742851e-03 0.0000000000000000e+00  1.4092000201344490e-02 1.1729000136256218e-02 0.0000000000000000e+00  7.4089998379349709e-03 1.9980000797659159e-03 0.0000000000000000e+00  1.0588999837636948e-02 3.7440001033246517e-03 0.0000000000000000e+00  6.2879999168217182e-03 2.0409999415278435e-03 0.0000000000000000e+00  9.5800003036856651e-03 3.9739999920129776e-03 0.0000000000000000e+00  -8.2369996234774590e-03 -3.2568998634815216e-02 0.0000000000000000e+00  0.0000000000000000e+00 -8.3109997212886810e-03 0.0000000000000000e+00  0.0000000000000000e+00 -8.3109997212886810e-03 0.0000000000000000e+00  5.9100001817569137e-04 -3.3693999052047729e-02 0.0000000000000000e+00  -9.1100001009181142e-04 -2.9380999505519867e-02 0.0000000000000000e+00  -1.2499999720603228e-03 -2.8814999386668205e-02 0.0000000000000000e+00  7.5599999399855733e-04 -9.0659996494650841e-03 0.0000000000000000e+00  -2.4217000231146812e-02 -6.1106000095605850e-02 0.0000000000000000e+00  -2.4406999349594116e-02 -5.8681998401880264e-02 0.0000000000000000e+00  -2.4452999234199524e-02 -5.8726001530885696e-02 0.0000000000000000e+00  -2.1788999438285828e-02 -4.6509001404047012e-02 0.0000000000000000e+00  -2.3818999528884888e-02 -4.8953998833894730e-02 0.0000000000000000e+00  -2.2144999355077744e-02 -4.5871000736951828e-02 0.0000000000000000e+00  -2.2338999435305595e-02 -4.9725998193025589e-02 0.0000000000000000e+00  5.2899997681379318e-03 4.6520000323653221e-03 0.0000000000000000e+00  9.5610003918409348e-03 8.0300001427531242e-03 0.0000000000000000e+00  9.7470004111528397e-03 8.0840000882744789e-03 0.0000000000000000e+00  8.0099999904632568e-03 6.5549998544156551e-03 0.0000000000000000e+00  4.6259998343884945e-03 4.0159998461604118e-03 0.0000000000000000e+00  1.4608000405132771e-02 1.1559000238776207e-02 0.0000000000000000e+00  1.4181000180542469e-02 1.1371999979019165e-02 0.0000000000000000e+00  1.9579999148845673e-02 1.4965999871492386e-02 0.0000000000000000e+00  1.9530000165104866e-02 1.4752999879419804e-02 0.0000000000000000e+00  4.4220001436769962e-03 3.9459997788071632e-03 0.0000000000000000e+00  3.0219999607652426e-03 -3.0060000717639923e-03 0.0000000000000000e+00  3.0219999607652426e-03 -2.2670000325888395e-03 0.0000000000000000e+00  2.5460000615566969e-03 -1.5519999433308840e-03 0.0000000000000000e+00  4.9609998241066933e-03 4.5019998215138912e-03 0.0000000000000000e+00  5.7319998741149902e-03 5.2590002305805683e-03 0.0000000000000000e+00  2.2281000390648842e-02 1.6191000118851662e-02 0.0000000000000000e+00  1.5644999220967293e-02 1.2237999588251114e-02 0.0000000000000000e+00  1.8392000347375870e-02 1.3527000322937965e-02 0.0000000000000000e+00  1.9920999184250832e-02 1.5213999897241592e-02 0.0000000000000000e+00  1.6462000086903572e-02 1.3233000412583351e-02 0.0000000000000000e+00  2.3243000730872154e-02 1.7472999170422554e-02 0.0000000000000000e+00  6.8256996572017670e-02 1.1403600126504898e-01 0.0000000000000000e+00  6.4326003193855286e-02 1.1240000277757645e-01 0.0000000000000000e+00  3.6000001273350790e-05 1.2327999807894230e-02 0.0000000000000000e+00  8.4325000643730164e-02 1.4376099407672882e-01 0.0000000000000000e+00  7.8752003610134125e-02 1.3119900226593018e-01 0.0000000000000000e+00  8.6379997432231903e-02 1.5304200351238251e-01 0.0000000000000000e+00  -2.7883000671863556e-02 1.1918699741363525e-01 0.0000000000000000e+00  -1.7152000218629837e-02 1.2954799830913544e-01 0.0000000000000000e+00  -1.4631999656558037e-02 1.3423599302768707e-01 0.0000000000000000e+00  -4.0029000490903854e-02 1.0508599877357483e-01 0.0000000000000000e+00  -2.7418000623583794e-02 1.1732699722051620e-01 0.0000000000000000e+00  -4.2488999664783478e-02 -8.6765997111797333e-02 0.0000000000000000e+00  -4.6608999371528625e-02 -8.8803000748157501e-02 0.0000000000000000e+00  -4.9950998276472092e-02 -8.6181998252868652e-02 0.0000000000000000e+00  -5.4618999361991882e-02 -8.8207997381687164e-02 0.0000000000000000e+00  -2.1542999893426895e-02 -3.9476998150348663e-02 0.0000000000000000e+00  -1.9278999418020248e-02 -3.8380999118089676e-02 0.0000000000000000e+00  -2.0516000688076019e-02 -4.2977001518011093e-02 0.0000000000000000e+00  -8.0650001764297485e-03 -1.1087000370025635e-02 0.0000000000000000e+00  -2.6373000815510750e-02 -3.5934999585151672e-02 0.0000000000000000e+00  -9.8219998180866241e-03 -1.0057000443339348e-02 0.0000000000000000e+00  -9.8219998180866241e-03 -1.0325999930500984e-02 0.0000000000000000e+00  -2.4801999330520630e-02 -7.5135000050067902e-02 0.0000000000000000e+00  -2.6537999510765076e-02 -7.8459002077579498e-02 0.0000000000000000e+00  -3.0292000621557236e-02 -7.5705997645854950e-02 0.0000000000000000e+00  -2.3244999349117279e-02 -7.1488000452518463e-02 0.0000000000000000e+00  -2.3375999182462692e-02 -7.4449002742767334e-02 0.0000000000000000e+00  -2.2678999230265617e-02 -7.0927999913692474e-02 0.0000000000000000e+00  -2.7987999841570854e-02 -5.6983999907970428e-02 0.0000000000000000e+00  -2.7862999588251114e-02 -5.2747998386621475e-02 0.0000000000000000e+00  -2.6017000898718834e-02 -5.2834000438451767e-02 0.0000000000000000e+00  -2.3796999827027321e-02 -6.4485996961593628e-02 0.0000000000000000e+00  -2.2275000810623169e-02 -6.0237001627683640e-02 0.0000000000000000e+00  -2.1077999845147133e-02 -6.3703000545501709e-02 0.0000000000000000e+00  -2.8359999414533377e-03 2.6877000927925110e-02 0.0000000000000000e+00  1.8700000364333391e-03 4.0431000292301178e-02 0.0000000000000000e+00  -9.1979997232556343e-03 2.6047000661492348e-02 0.0000000000000000e+00  1.2676900625228882e-01 8.3393998444080353e-02 0.0000000000000000e+00  1.2873299419879913e-01 9.0557001531124115e-02 0.0000000000000000e+00  1.3229499757289886e-01 9.0337000787258148e-02 0.0000000000000000e+00  -7.5599999399855733e-04 7.5599999399855733e-04 0.0000000000000000e+00  -5.2499998128041625e-04 7.5599999399855733e-04 0.0000000000000000e+00  -7.5599999399855733e-04 9.9700002465397120e-04 0.0000000000000000e+00  -7.5599999399855733e-04 1.2489999644458294e-03 0.0000000000000000e+00  0.0000000000000000e+00 1.5109999803826213e-03 0.0000000000000000e+00  3.7859999574720860e-03 2.7950000949203968e-03 0.0000000000000000e+00  2.4799999664537609e-04 1.5109999803826213e-03 0.0000000000000000e+00  3.2420000061392784e-03 2.1329999435693026e-03 0.0000000000000000e+00  8.3250002935528755e-03 5.3869998082518578e-03 0.0000000000000000e+00  4.3020001612603664e-03 2.4329998996108770e-03 0.0000000000000000e+00  2.7382999658584595e-02 1.5196000225841999e-02 0.0000000000000000e+00  1.9897999241948128e-02 1.1936999857425690e-02 0.0000000000000000e+00  2.1257000043988228e-02 1.1644000187516212e-02 0.0000000000000000e+00  1.5646999701857567e-02 8.3090001717209816e-03 0.0000000000000000e+00  2.1626999601721764e-02 1.0633000172674656e-02 0.0000000000000000e+00  1.4146000146865845e-02 8.3929998800158501e-03 0.0000000000000000e+00  2.7039999142289162e-02 1.6258999705314636e-02 0.0000000000000000e+00  1.9493000581860542e-02 1.3523999601602554e-02 0.0000000000000000e+00  2.4793999269604683e-02 1.6975000500679016e-02 0.0000000000000000e+00  2.6450999081134796e-02 1.7040999606251717e-02 0.0000000000000000e+00  1.5127999708056450e-02 6.1200000345706940e-03 0.0000000000000000e+00  6.3813000917434692e-02 4.6229001134634018e-02 0.0000000000000000e+00  6.6007003188133240e-02 4.2405001819133759e-02 0.0000000000000000e+00  7.0047996938228607e-02 4.7350998967885971e-02 0.0000000000000000e+00  7.6975002884864807e-02 6.0674998909235001e-02 0.0000000000000000e+00  7.9094000160694122e-02 6.4611002802848816e-02 0.0000000000000000e+00  7.7960997819900513e-02 6.1569001525640488e-02 0.0000000000000000e+00  1.5790000557899475e-02 5.6369998492300510e-03 0.0000000000000000e+00  1.3337999582290649e-02 4.4269999489188194e-03 0.0000000000000000e+00  1.2827999889850616e-02 3.7249999586492777e-03 0.0000000000000000e+00  1.0657999664545059e-02 2.6459998916834593e-03 0.0000000000000000e+00  -2.7600000612437725e-04 7.5599999399855733e-04 0.0000000000000000e+00  0.0000000000000000e+00 7.5599999399855733e-04 0.0000000000000000e+00  6.1840999871492386e-02 8.0684997141361237e-02 0.0000000000000000e+00  5.2161000669002533e-02 6.1147999018430710e-02 0.0000000000000000e+00  5.8242999017238617e-02 7.3362000286579132e-02 0.0000000000000000e+00  6.8521998822689056e-02 9.4948999583721161e-02 0.0000000000000000e+00  4.4580001384019852e-02 1.3754799962043762e-01 0.0000000000000000e+00  5.3474999964237213e-02 1.4642199873924255e-01 0.0000000000000000e+00  2.7021000161767006e-02 1.4694400131702423e-01 0.0000000000000000e+00  2.9523000121116638e-02 2.7876999229192734e-02 0.0000000000000000e+00  1.3120999559760094e-02 -2.4669999256730080e-03 0.0000000000000000e+00  1.3367000035941601e-02 -1.9759999122470617e-03 0.0000000000000000e+00  3.3789001405239105e-02 4.5386001467704773e-02 0.0000000000000000e+00  1.5375000424683094e-02 7.9299998469650745e-04 0.0000000000000000e+00  1.5611000359058380e-02 1.5040000434964895e-03 0.0000000000000000e+00  5.3458999842405319e-02 8.2941003143787384e-02 0.0000000000000000e+00  6.5056003630161285e-02 9.3822002410888672e-02 0.0000000000000000e+00  5.5061001330614090e-02 7.8192003071308136e-02 0.0000000000000000e+00  5.6536998599767685e-02 7.4147999286651611e-02 0.0000000000000000e+00  4.3611999601125717e-02 6.2270000576972961e-02 0.0000000000000000e+00  6.7542001605033875e-02 8.9510001242160797e-02 0.0000000000000000e+00  7.6898001134395599e-02 1.0449200123548508e-01 0.0000000000000000e+00  6.9981999695301056e-02 8.5910998284816742e-02 0.0000000000000000e+00  7.2700999677181244e-02 8.3223000168800354e-02 0.0000000000000000e+00  8.3031997084617615e-02 9.6739999949932098e-02 0.0000000000000000e+00  8.6056999862194061e-02 9.3774996697902679e-02 0.0000000000000000e+00  9.0158998966217041e-02 1.4688000082969666e-01 0.0000000000000000e+00  9.7989000380039215e-02 1.6807000339031219e-01 0.0000000000000000e+00  9.2634998261928558e-02 1.5228399634361267e-01 0.0000000000000000e+00  1.0056699812412262e-01 1.7320300638675690e-01 0.0000000000000000e+00  2.5009999517351389e-03 -2.3400000645779073e-04 0.0000000000000000e+00  2.7530000079423189e-03 -4.8700001207180321e-04 0.0000000000000000e+00  -1.0800000018207356e-04 2.5929999537765980e-03 0.0000000000000000e+00  -2.7000000045518391e-05 2.6209999341517687e-03 0.0000000000000000e+00  9.5388002693653107e-02 1.0633099824190140e-01 0.0000000000000000e+00  1.3122899830341339e-01 1.3921199738979340e-01 0.0000000000000000e+00  1.3128499686717987e-01 1.4421600103378296e-01 0.0000000000000000e+00  1.3615000247955322e-01 1.3991600275039673e-01 0.0000000000000000e+00  1.2635800242424011e-01 1.4346399903297424e-01 0.0000000000000000e+00  7.3049999773502350e-02 1.0906200110912323e-01 0.0000000000000000e+00  3.5794001072645187e-02 2.4707999080419540e-02 0.0000000000000000e+00  3.9473000913858414e-02 2.7111999690532684e-02 0.0000000000000000e+00  2.5914000347256660e-02 1.9997000694274902e-02 0.0000000000000000e+00  1.5437600016593933e-01 7.8993998467922211e-02 0.0000000000000000e+00  1.5867500007152557e-01 7.8743003308773041e-02 0.0000000000000000e+00  1.4688700437545776e-01 7.4175998568534851e-02 0.0000000000000000e+00  1.5167300403118134e-01 7.4185997247695923e-02 0.0000000000000000e+00  1.6234099864959717e-01 7.7848002314567566e-02 0.0000000000000000e+00  1.4326199889183044e-01 6.9315999746322632e-02 0.0000000000000000e+00  1.3822700083255768e-01 6.8916998803615570e-02 0.0000000000000000e+00  1.6435399651527405e-01 8.3250001072883606e-02 0.0000000000000000e+00  7.5599999399855733e-04 -8.8099995627999306e-03 0.0000000000000000e+00  -1.6039999900385737e-03 -3.0772000551223755e-02 0.0000000000000000e+00  7.5599999399855733e-04 -8.5770003497600555e-03 0.0000000000000000e+00  8.2100002327933908e-04 -3.4993998706340790e-02 0.0000000000000000e+00  -1.7100000695791095e-04 -3.6910999566316605e-02 0.0000000000000000e+00  8.5399998351931572e-04 -4.3074000626802444e-02 0.0000000000000000e+00  -2.8689999599009752e-03 -4.0238998830318451e-02 0.0000000000000000e+00  3.6530001088976860e-03 -4.6944998204708099e-02 0.0000000000000000e+00  1.5630000270903111e-03 -4.8822999000549316e-02 0.0000000000000000e+00  -2.3199999704957008e-03 -4.5793000608682632e-02 0.0000000000000000e+00  7.5599999399855733e-04 -9.0659996494650841e-03 0.0000000000000000e+00  -2.3006999865174294e-02 -4.5573998242616653e-02 0.0000000000000000e+00  -2.1105000749230385e-02 -4.2796999216079712e-02 0.0000000000000000e+00  -1.8012000247836113e-02 -4.0325999259948730e-02 0.0000000000000000e+00  -1.7211999744176865e-02 -3.6012999713420868e-02 0.0000000000000000e+00  -1.7071999609470367e-02 -3.8750998675823212e-02 0.0000000000000000e+00  -1.6108000651001930e-02 -3.4696001559495926e-02 0.0000000000000000e+00  -1.7035000026226044e-02 -3.7434000521898270e-02 0.0000000000000000e+00  -1.8347000703215599e-02 -4.2876999825239182e-02 0.0000000000000000e+00  -1.9083000719547272e-02 -4.7031000256538391e-02 0.0000000000000000e+00  -2.1751999855041504e-02 -4.7573998570442200e-02 0.0000000000000000e+00  -2.4912999942898750e-02 -5.6832998991012573e-02 0.0000000000000000e+00  -2.1686000749468803e-02 -4.5161999762058258e-02 0.0000000000000000e+00  -1.8358999863266945e-02 -4.0821000933647156e-02 0.0000000000000000e+00  -2.1469000726938248e-02 -4.5186001807451248e-02 0.0000000000000000e+00  -2.0901000127196312e-02 -4.6160999685525894e-02 0.0000000000000000e+00  -1.8387999385595322e-02 -4.1903998702764511e-02 0.0000000000000000e+00  -2.1710999310016632e-02 -5.6278999894857407e-02 0.0000000000000000e+00  -1.9154999405145645e-02 -5.7815000414848328e-02 0.0000000000000000e+00  -1.9682999700307846e-02 -5.5782001465559006e-02 0.0000000000000000e+00  -1.9060999155044556e-02 -5.1793001592159271e-02 0.0000000000000000e+00  -1.7097000032663345e-02 -5.3943000733852386e-02 0.0000000000000000e+00  -2.4181000888347626e-02 -5.1564998924732208e-02 0.0000000000000000e+00  -2.4268999695777893e-02 -5.3915999829769135e-02 0.0000000000000000e+00  -2.2475000470876694e-02 -5.2446998655796051e-02 0.0000000000000000e+00  -2.0330000668764114e-02 -5.0119001418352127e-02 0.0000000000000000e+00  -3.7970000412315130e-03 -4.1880000382661819e-02 0.0000000000000000e+00  -6.7159999161958694e-03 -3.6253001540899277e-02 0.0000000000000000e+00  -8.4570003673434258e-03 -3.7661001086235046e-02 0.0000000000000000e+00  3.0219999607652426e-03 -3.3980000298470259e-03 0.0000000000000000e+00  3.0219999607652426e-03 -3.7779998965561390e-03 0.0000000000000000e+00  2.8460000175982714e-03 -4.1299997828900814e-03 0.0000000000000000e+00  2.6559999678283930e-03 -4.5090001076459885e-03 0.0000000000000000e+00  4.1049998253583908e-03 3.5069999285042286e-03 0.0000000000000000e+00  1.5243999660015106e-02 1.2381000444293022e-02 0.0000000000000000e+00  2.1299999207258224e-02 1.6475999727845192e-02 0.0000000000000000e+00  9.0389996767044067e-03 7.7050002291798592e-03 0.0000000000000000e+00  3.0219999607652426e-03 -2.6249999646097422e-03 0.0000000000000000e+00  7.5599999399855733e-04 9.9500000942498446e-04 0.0000000000000000e+00  4.1339998133480549e-03 3.7340000271797180e-03 0.0000000000000000e+00  7.5599999399855733e-04 7.5599999399855733e-04 0.0000000000000000e+00  7.5599999399855733e-04 1.2400000123307109e-03 0.0000000000000000e+00  1.9968999549746513e-02 1.5661999583244324e-02 0.0000000000000000e+00  2.6760999113321304e-02 1.9111000001430511e-02 0.0000000000000000e+00  3.4053999930620193e-02 2.2774999961256981e-02 0.0000000000000000e+00  3.0130000784993172e-02 2.1219000220298767e-02 0.0000000000000000e+00  5.8265000581741333e-02 4.0488999336957932e-02 0.0000000000000000e+00  5.6155998259782791e-02 4.3848000466823578e-02 0.0000000000000000e+00  5.1011998206377029e-02 3.8169000297784805e-02 0.0000000000000000e+00  2.8196999803185463e-02 1.4317000284790993e-02 0.0000000000000000e+00  4.5136000961065292e-02 2.1053999662399292e-02 0.0000000000000000e+00  5.3410999476909637e-02 2.5485999882221222e-02 0.0000000000000000e+00  5.3592998534440994e-02 2.5782000273466110e-02 0.0000000000000000e+00  4.3981999158859253e-02 2.0235000178217888e-02 0.0000000000000000e+00  3.6359999328851700e-02 1.6319999471306801e-02 0.0000000000000000e+00  6.0029998421669006e-02 3.0642999336123466e-02 0.0000000000000000e+00  6.5629996359348297e-02 3.6954000592231750e-02 0.0000000000000000e+00  6.7789003252983093e-02 3.5695001482963562e-02 0.0000000000000000e+00  5.8889999985694885e-02 8.3958998322486877e-02 0.0000000000000000e+00  5.0400998443365097e-02 6.8714998662471771e-02 0.0000000000000000e+00  6.0231000185012817e-02 8.8257998228073120e-02 0.0000000000000000e+00  9.2844001948833466e-02 1.4906600117683411e-01 0.0000000000000000e+00  8.9447997510433197e-02 1.4203399419784546e-01 0.0000000000000000e+00  9.7914002835750580e-02 1.6270600259304047e-01 0.0000000000000000e+00  1.2330500036478043e-01 2.1792200207710266e-01 0.0000000000000000e+00  1.2808500230312347e-01 2.2769400477409363e-01 0.0000000000000000e+00  1.2576200067996979e-01 2.2034400701522827e-01 0.0000000000000000e+00  7.5599999399855733e-04 1.2087999843060970e-02 0.0000000000000000e+00  9.4908997416496277e-02 1.8770499527454376e-01 0.0000000000000000e+00  9.6072003245353699e-02 2.0070399343967438e-01 0.0000000000000000e+00  9.9444001913070679e-02 1.9686500728130341e-01 0.0000000000000000e+00  9.6444003283977509e-02 1.8111599981784821e-01 0.0000000000000000e+00  9.2730998992919922e-02 1.7682799696922302e-01 0.0000000000000000e+00  9.0452000498771667e-02 1.6628499329090118e-01 0.0000000000000000e+00  1.0618799924850464e-01 1.9009299576282501e-01 0.0000000000000000e+00  1.0320500284433365e-01 1.7824499309062958e-01 0.0000000000000000e+00  1.0895399749279022e-01 1.9460399448871613e-01 0.0000000000000000e+00  1.0567300021648407e-01 1.8269599974155426e-01 0.0000000000000000e+00  8.7613001465797424e-02 1.4424499869346619e-01 0.0000000000000000e+00  9.2243999242782593e-02 1.6344399750232697e-01 0.0000000000000000e+00  9.8453000187873840e-02 1.7651599645614624e-01 0.0000000000000000e+00  1.0267499834299088e-01 1.9250899553298950e-01 0.0000000000000000e+00  1.0673899948596954e-01 2.0642499625682831e-01 0.0000000000000000e+00  1.0569900274276733e-01 1.9673399627208710e-01 0.0000000000000000e+00  9.5135003328323364e-02 1.6270600259304047e-01 0.0000000000000000e+00  -6.4075998961925507e-02 7.5392998754978180e-02 0.0000000000000000e+00  -7.4690997600555420e-02 6.1384998261928558e-02 0.0000000000000000e+00  -6.6519998013973236e-02 6.9963000714778900e-02 0.0000000000000000e+00  -3.3718999475240707e-02 1.0887899994850159e-01 0.0000000000000000e+00  -3.9898000657558441e-02 1.0299800336360931e-01 0.0000000000000000e+00  -4.6043001115322113e-02 9.4406999647617340e-02 0.0000000000000000e+00  -5.2386999130249023e-02 8.9997999370098114e-02 0.0000000000000000e+00  -3.5725999623537064e-02 -8.1758998334407806e-02 0.0000000000000000e+00  -3.9030000567436218e-02 -7.8605003654956818e-02 0.0000000000000000e+00  -3.2926999032497406e-02 -7.8868001699447632e-02 0.0000000000000000e+00  -2.8419999405741692e-02 -8.1336997449398041e-02 0.0000000000000000e+00  -3.7751998752355576e-02 -8.8610000908374786e-02 0.0000000000000000e+00  -7.9888999462127686e-02 -9.0392999351024628e-02 0.0000000000000000e+00  -6.9912001490592957e-02 -9.1792002320289612e-02 0.0000000000000000e+00  -7.8387998044490814e-02 -9.0723000466823578e-02 0.0000000000000000e+00  -5.7082001119852066e-02