<?xml version="1.0"?>
<VTKFile type="UnstructuredGrid"  version="0.1"  >
<UnstructuredGrid>
<Piece  NumberOfPoints="6340" NumberOfCells="12376">
<Points>
<DataArray  type="Float64"  NumberOfComponents="3"  format="ascii">-0.01957100071012974 0.0207930002361536 0  -0.02036800049245358 0.02151699922978878 0  -0.02057000063359737 0.0205099992454052 0  -0.02123799920082092 0.0213639996945858 0  -0.01978500001132488 0.01986600086092949 0  -0.01943499967455864 0.02167900092899799 0  -0.02003099955618382 0.02247899957001209 0  -0.01954800076782703 0.0232779998332262 0  -0.02060200087726116 0.02332399971783161 0  -0.01895599998533726 0.02239299938082695 0  -0.007654999848455191 0.01808900013566017 0  -0.00836700014770031 0.0189180001616478 0  -0.008693999610841274 0.01797600090503693 0  -0.00941499974578619 0.01884300075471401 0  -0.02556899935007095 0.08017800003290176 0  -0.02648800052702427 0.08078300207853317 0  -0.0266720000654459 0.07998400181531906 0  -0.02621700055897236 0.07339199632406235 0  -0.02682399936020374 0.07424800097942352 0  -0.0270370002835989 0.07334599643945694 0  -0.02776000089943409 0.07391999661922455 0  -0.01146699953824282 0.09043700248003006 0  -0.01237600017338991 0.09043899923563004 0  -0.01189500000327826 0.08960100263357162 0  -0.01941500045359135 0.08545400202274323 0  -0.01841400004923344 0.08545300364494324 0  -0.01885399967432022 0.08629599958658218 0  -0.01897500082850456 0.08460800349712372 0  -0.02258899994194508 0.02513900026679039 0  -0.02161600068211555 0.02508700080215931 0  -0.02208000048995018 0.02600100077688694 0  -0.02249700017273426 0.02691500075161457 0  -0.02307200059294701 0.02606699988245964 0  -0.02109899930655956 0.02595300041139126 0  -0.02060900069773197 0.02504299953579903 0  -0.01958500035107136 0.02499799989163876 0  -0.02009199932217598 0.02590099908411503 0  -0.02211800031363964 0.02420300059020519 0  -0.02318499982357025 0.02432600036263466 0  -0.02246999926865101 0.02294000051915646 0  -0.02187100052833557 0.02217400074005127 0  -0.02161600068211555 0.02327400073409081 0  -0.02098999917507172 0.02240299992263317 0  -0.01601199992001057 0.02197100035846233 0  -0.01653400063514709 0.02109299972653389 0  -0.01546099968254566 0.02106999978423119 0  -0.0170109998434782 0.02209099940955639 0  -0.01802900061011314 0.02215100079774857 0  -0.01752999983727932 0.02302400022745132 0  0.04078299924731255 0.08436600118875504 0  0.04063599929213524 0.08349599689245224 0  0.04187000170350075 0.08383399993181229 0  0.04171700030565262 0.09562700241804123 0  0.04244599863886833 0.09603600203990936 0  0.04145700111985207 0.09653200209140778 0  0.02554200030863285 0.1045190021395683 0  0.0256740003824234 0.1035690009593964 0  0.02651499956846237 0.1040299981832504 0  0.02464799955487251 0.1049679964780807 0  0.02476700022816658 0.103814996778965 0  -0.00533499987795949 0.09875799715518951 0  -0.004435000009834766 0.09880399703979492 0  -0.00496299983933568 0.09963600337505341 0  -0.004058999940752983 0.09968800097703934 0  -0.01621799916028976 0.1003580018877983 0  -0.0165999997407198 0.09964799880981445 0  -0.01558000035583973 0.09972699731588364 0  -0.01712200045585632 0.1005830019712448 0  -0.01249799970537424 0.1062790006399155 0  -0.01268700044602156 0.107184998691082 0  -0.01326800044625998 0.1064689978957176 0  -0.009153000079095364 0.09793400019407272 0  -0.008290999568998814 0.09791900217533112 0  -0.008817000314593315 0.09876099973917007 0  -0.01000900007784367 0.09794899821281433 0  -0.009483999572694302 0.09710899740457535 0  -0.0103399995714426 0.09712500125169754 0  -0.01244099996984005 0.1004379987716675 0  -0.01292899996042252 0.1012440025806427 0  -0.01333099976181984 0.1004379987716675 0  -0.01139600016176701 0.0987979993224144 0  -0.0122699998319149 0.09881299734115601 0  -0.01173400040715933 0.09797900170087814 0  0.01181400008499622 0.09500300139188766 0  0.01276899967342615 0.09499700367450714 0  0.01224000006914139 0.09585899859666824 0  0.007550000213086605 0.07869700342416763 0  0.00811500009149313 0.07786200195550919 0  0.008503999561071396 0.07868999987840652 0  -0.007340000011026859 0.01721999980509281 0  -0.006492000073194504 0.01746100001037121 0  -0.008239000104367733 0.01708300039172173 0  -0.009176000021398067 0.01693899929523468 0  -0.01295999996364117 0.01682000048458576 0  -0.01323799975216389 0.01790600083768368 0  -0.0138579998165369 0.01701300032436848 0  -0.01238400023430586 0.01772500015795231 0  -0.01242499984800816 0.01875099912285805 0  -0.0115360002964735 0.01791100017726421 0  -0.01198399998247623 0.02168400026857853 0  -0.01247300021350384 0.02072799950838089 0  -0.0114989997819066 0.02077200077474117 0  -0.01100500021129847 0.01992099918425083 0  -0.01044400036334991 0.0207700002938509 0  -0.01198500022292137 0.01977100037038326 0  -0.01296900026500225 0.02170100063085556 0  -0.01444400008767843 0.02092700079083443 0  -0.01496999990195036 0.02190499939024448 0  -0.01396000012755394 0.02178600057959557 0  -0.008895999751985073 0.01979600079357624 0  -0.01095900032669306 0.0306950006633997 0  -0.01147199980914593 0.0298250000923872 0  -0.01044000033289194 0.02976999990642071 0  -0.005262000020593405 0.02951700054109097 0  -0.005785999819636345 0.03043499961495399 0  -0.006297999992966652 0.02956300042569637 0  -0.0078959995880723 0.01988199912011623 0  -0.005301000084728003 0.01939800009131432 0  -0.006318999920040369 0.019208999350667 0  -0.005501999985426664 0.01855099946260452 0  -0.005574999842792749 0.0177219994366169 0  -0.004559999797493219 0.01800999976694584 0  0.04363999888300896 0.09166599810123444 0  0.0445839986205101 0.09129100292921066 0  0.04410900175571442 0.09230799973011017 0  0.04307699948549271 0.09238599985837936 0  0.01707999967038631 0.05988400056958199 0  0.01814999990165234 0.05987000092864037 0  0.01764300093054771 0.06072400137782097 0  0.03142900019884109 0.04600400105118752 0  0.03194199874997139 0.04499400034546852 0  0.03240299969911575 0.0457569994032383 0  0.03342600166797638 0.05035199970006943 0  0.03436899930238724 0.04975000023841858 0  0.03467399999499321 0.05051200091838837 0  0.03299500048160553 0.05374500155448914 0  0.03204900026321411 0.05376200005412102 0  0.03262799978256226 0.05287399888038635 0  0.03223299980163574 0.05203299969434738 0  0.03324799984693527 0.0519930012524128 0  0.03164000064134598 0.05290599912405014 0  0.03107099980115891 0.05378299951553345 0  0.03119900077581406 0.05208500102162361 0  0.03068800084292889 0.0512779988348484 0  0.03015599958598614 0.05212099850177765 0  0.02962600067257881 0.05129799991846085 0  0.0411130003631115 0.0939600020647049 0  0.04012300074100494 0.09396900236606598 0  0.04066399857401848 0.0931209996342659 0  0.03969400003552437 0.09309700131416321 0  0.009054999798536301 0.0253710001707077 0  0.009847000241279602 0.02588799968361855 0  0.009046000428497791 0.02642999961972237 0  0.009910999797284603 0.02684799954295158 0  0.02910399995744228 0.05214200168848038 0  0.02491400018334389 0.05387400090694427 0  0.02440099976956844 0.0547260008752346 0  0.02385099977254868 0.05388100072741508 0  0.0254529993981123 0.05471900105476379 0  0.03150499984622002 0.05463799834251404 0  0.02027199976146221 0.03691599890589714 0  0.01934799924492836 0.03673199936747551 0  0.01979999989271164 0.03587799891829491 0  0.01444999966770411 0.04177900031208992 0  0.0134699996560812 0.04172499850392342 0  0.01397099997848272 0.04087600111961365 0  0.01298900041729212 0.04082300141453743 0  0.01248900033533573 0.04167100042104721 0  0.01250700000673532 0.03991900011897087 0  0.01348999980837107 0.03997499868273735 0  0.01394999958574772 0.04262800142168999 0  -0.02762500010430813 0.07480300217866898 0  -0.02652899920940399 0.07507199794054031 0  -0.02750100009143353 0.07561100274324417 0  -0.02586599998176098 0.07427900284528732 0  -0.02546999976038933 0.07509999722242355 0  -0.02444499917328358 0.07513300329446793 0  -0.02490800060331821 0.07594999670982361 0  -0.02388300001621246 0.07431899756193161 0  -0.02343899942934513 0.0751509964466095 0  -0.02394100092351437 0.07597099989652634 0  -0.02785800024867058 0.07300499826669693 0  -0.01828699931502342 0.08713199943304062 0  -0.01929100044071674 0.08713500201702118 0  -0.01675999909639359 0.09632000327110291 0  -0.01766500063240528 0.09636399894952774 0  -0.01716299913823605 0.09551200270652771 0  -0.01806399971246719 0.09555900096893311 0  -0.01757499948143959 0.09470000118017197 0  -0.01575299911201 0.09891799837350845 0  -0.01490799989551306 0.09889800101518631 0  -0.01464600022882223 0.09970399737358093 0  -0.01283000037074089 0.0896029993891716 0  -0.01111599989235401 0.08291599899530411 0  -0.01011900044977665 0.08291599899530411 0  -0.01055699959397316 0.08375799655914307 0  -0.0100119998678565 0.08459900319576263 0  -0.009569000452756882 0.08375699818134308 0  -0.01521100010722876 0.08119700103998184 0  -0.01573299989104271 0.08033700287342072 0  -0.01474700029939413 0.08034300059080124 0  -0.01375999953597784 0.08034899830818176 0  -0.01426799967885017 0.07948999851942062 0  -0.01797699928283691 0.08460900187492371 0  -0.01754000037908554 0.08375699818134308 0  -0.01853800006210804 0.08375400304794312 0  -0.01953699998557568 0.08375299721956253 0  -0.02447500079870224 0.07680100202560425 0  -0.02497199922800064 0.07933799922466278 0  -0.02453799918293953 0.08018500357866287 0  -0.02356399968266487 0.02505999989807606 0  -0.02393000014126301 0.02576999925076962 0  -0.02418399974703789 0.02647400088608265 0  -0.02445800043642521 0.02723200060427189 0  -0.02345100045204163 0.02701899968087673 0  -0.02009199932217598 0.02415600046515465 0  -0.01905800029635429 0.02409799955785275 0  -0.02112999930977821 0.02418199926614761 0  -0.02281700074672699 0.02361200004816055 0  -0.01747100055217743 0.01825099997222424 0  -0.01708799973130226 0.01901400089263916 0  -0.01829000003635883 0.01864000037312508 0  -0.01662999950349331 0.01785100065171719 0  -0.01850299909710884 0.02318700030446053 0  -0.0165190007537
[...]
<PointData  Vectors="velocity"> 
<DataArray  type="Float64"  Name="velocity"  NumberOfComponents="3" format="ascii">5.5400002747774124e-04 5.2399997366592288e-04 0.0000000000000000e+00  3.6999999429099262e-04 3.5399998887442052e-04 0.0000000000000000e+00  7.5599999399855733e-04 0.0000000000000000e+00 0.0000000000000000e+00  7.5599999399855733e-04 2.6500000967644155e-04 0.0000000000000000e+00  7.5599999399855733e-04 0.0000000000000000e+00 0.0000000000000000e+00  1.0450000409036875e-03 9.4599998556077480e-04 0.0000000000000000e+00  7.8599998960271478e-04 7.1599998045712709e-04 0.0000000000000000e+00  1.1239999439567327e-03 9.8600005730986595e-04 0.0000000000000000e+00  4.3700000969693065e-04 4.1800001054070890e-04 0.0000000000000000e+00  1.6479999758303165e-03 1.4220000011846423e-03 0.0000000000000000e+00  -6.0970000922679901e-03 -9.3199999537318945e-04 0.0000000000000000e+00  -5.6549999862909317e-03 9.3000002379994839e-05 0.0000000000000000e+00  -5.7729999534785748e-03 -2.9699999140575528e-04 0.0000000000000000e+00  -3.8850000128149986e-03 8.7200000416487455e-04 0.0000000000000000e+00  -4.3660001829266548e-03 -4.7089997678995132e-03 0.0000000000000000e+00  2.0000000949949026e-03 1.2310000136494637e-02 0.0000000000000000e+00  1.7650000518187881e-03 1.1841000057756901e-02 0.0000000000000000e+00  -3.0269999988377094e-03 -1.2895000167191029e-02 0.0000000000000000e+00  -2.6080000679939985e-03 -7.8130001202225685e-03 0.0000000000000000e+00  -3.3960000146180391e-03 -7.8339995816349983e-03 0.0000000000000000e+00  7.5599999399855733e-04 8.3109997212886810e-03 0.0000000000000000e+00  -5.1406998187303543e-02 -4.1140999644994736e-02 0.0000000000000000e+00  -4.5830000191926956e-02 -3.0224999412894249e-02 0.0000000000000000e+00  -6.0377001762390137e-02 -4.1790999472141266e-02 0.0000000000000000e+00  -2.8281999751925468e-02 -1.4188000001013279e-02 0.0000000000000000e+00  -3.6543000489473343e-02 -2.0478000864386559e-02 0.0000000000000000e+00  -2.8396999463438988e-02 -1.1281999759376049e-02 0.0000000000000000e+00  -3.3847998827695847e-02 -2.3138999938964844e-02 0.0000000000000000e+00  -2.8400000883266330e-04 -1.6900000628083944e-04 0.0000000000000000e+00  -4.0799999260343611e-04 -2.4500000290572643e-04 0.0000000000000000e+00  -7.3299999348819256e-04 -4.4199998956173658e-04 0.0000000000000000e+00  -1.2059999862685800e-03 -7.2000001091510057e-04 0.0000000000000000e+00  -5.3999997908249497e-04 -3.3000000985339284e-04 0.0000000000000000e+00  -7.9700001515448093e-04 -4.3899999582208693e-04 0.0000000000000000e+00  -2.1899999410379678e-04 -5.2999999752501026e-05 0.0000000000000000e+00  3.1999999191612005e-04 3.9900001138448715e-04 0.0000000000000000e+00  -6.3099997350946069e-04 -2.6000000070780516e-04 0.0000000000000000e+00  -1.3899999612476677e-04 -8.2999998994637281e-05 0.0000000000000000e+00  7.5599999399855733e-04 3.8599999970756471e-04 0.0000000000000000e+00  7.5599999399855733e-04 7.5599999399855733e-04 0.0000000000000000e+00  7.5599999399855733e-04 5.1699997857213020e-04 0.0000000000000000e+00  8.8000000687316060e-05 1.0399999882793054e-04 0.0000000000000000e+00  2.7499999850988388e-04 2.6800000341609120e-04 0.0000000000000000e+00  4.5619998127222061e-03 3.5550000611692667e-03 0.0000000000000000e+00  3.3879999537020922e-03 2.7449999470263720e-03 0.0000000000000000e+00  4.2770002037286758e-03 3.3760000951588154e-03 0.0000000000000000e+00  3.5729999653995037e-03 2.8570001013576984e-03 0.0000000000000000e+00  2.5200000964105129e-03 2.0979999098926783e-03 0.0000000000000000e+00  3.2369999680668116e-03 2.5770000647753477e-03 0.0000000000000000e+00  4.9725998193025589e-02 1.1020799726247787e-01 0.0000000000000000e+00  4.8425998538732529e-02 1.1018099635839462e-01 0.0000000000000000e+00  2.5723999366164207e-02 2.6683000847697258e-02 0.0000000000000000e+00  -1.4120000414550304e-03 7.2768002748489380e-02 0.0000000000000000e+00  -2.8760000132024288e-03 6.7175999283790588e-02 0.0000000000000000e+00  -1.0707999579608440e-02 6.7718997597694397e-02 0.0000000000000000e+00  -1.4723299443721771e-01 -5.2801001816987991e-02 0.0000000000000000e+00  -1.4946399629116058e-01 -4.6408999711275101e-02 0.0000000000000000e+00  -1.4530600607395172e-01 -4.2970001697540283e-02 0.0000000000000000e+00  -1.4767999947071075e-01 -6.1021000146865845e-02 0.0000000000000000e+00  -1.5256400406360626e-01 -5.4607998579740524e-02 0.0000000000000000e+00  -2.7751000598073006e-02 -8.6088001728057861e-02 0.0000000000000000e+00  -3.2678999006748199e-02 -9.7860001027584076e-02 0.0000000000000000e+00  -3.0019000172615051e-02 -8.6154997348785400e-02 0.0000000000000000e+00  -3.5372000187635422e-02 -9.7300998866558075e-02 0.0000000000000000e+00  8.5089998319745064e-03 1.7749000340700150e-02 0.0000000000000000e+00  8.7660001590847969e-03 1.8867999315261841e-02 0.0000000000000000e+00  7.6469997875392437e-03 1.5830000862479210e-02 0.0000000000000000e+00  4.7789998352527618e-03 1.4108999632298946e-02 0.0000000000000000e+00  -9.1800000518560410e-04 3.1139999628067017e-03 0.0000000000000000e+00  3.5429999697953463e-03 1.3833999633789062e-02 0.0000000000000000e+00  3.2730000093579292e-03 1.4103000052273273e-02 0.0000000000000000e+00  -1.2206000275909901e-02 -3.8846999406814575e-02 0.0000000000000000e+00  -1.5917999669909477e-02 -5.0028998404741287e-02 0.0000000000000000e+00  -1.1214000172913074e-02 -3.9902001619338989e-02 0.0000000000000000e+00  -8.7909996509552002e-03 -2.8629999607801437e-02 0.0000000000000000e+00  -1.2733000330626965e-02 -3.7512999027967453e-02 0.0000000000000000e+00  -9.8679997026920319e-03 -2.6884999126195908e-02 0.0000000000000000e+00  1.8220000201836228e-03 -1.2059999862685800e-03 0.0000000000000000e+00  3.2949999440461397e-03 2.6090000756084919e-03 0.0000000000000000e+00  3.9300001226365566e-03 5.0349999219179153e-03 0.0000000000000000e+00  -2.3209999781101942e-03 -1.1409999802708626e-02 0.0000000000000000e+00  3.9999998989515007e-05 -4.1570002213120461e-03 0.0000000000000000e+00  -2.4439999833703041e-03 -9.9950004369020462e-03 0.0000000000000000e+00  -8.9328996837139130e-02 -1.2580899894237518e-01 0.0000000000000000e+00  -8.7991997599601746e-02 -1.1529999971389771e-01 0.0000000000000000e+00  -9.3745999038219452e-02 -1.2647999823093414e-01 0.0000000000000000e+00  -1.1119999689981341e-03 -1.0178200155496597e-01 0.0000000000000000e+00  9.0560000389814377e-03 -9.3618996441364288e-02 0.0000000000000000e+00  4.0469998493790627e-03 -9.1095000505447388e-02 0.0000000000000000e+00  4.5329998247325420e-03 1.5109999803826213e-03 0.0000000000000000e+00  4.9939998425543308e-03 1.7419999931007624e-03 0.0000000000000000e+00  4.0500001050531864e-03 1.2690000003203750e-03 0.0000000000000000e+00  3.5459999926388264e-03 1.0169999441131949e-03 0.0000000000000000e+00  1.5109999803826213e-03 7.5599999399855733e-04 0.0000000000000000e+00  2.8800001018680632e-04 4.7599998652003706e-04 0.0000000000000000e+00  1.2639999622479081e-03 7.5599999399855733e-04 0.0000000000000000e+00  -3.0000001424923539e-04 2.7499999850988388e-04 0.0000000000000000e+00  8.7400001939386129e-04 1.3739999849349260e-03 0.0000000000000000e+00  -1.1899999808520079e-03 1.9099999917671084e-04 0.0000000000000000e+00  5.5140000768005848e-03 6.0519999824464321e-03 0.0000000000000000e+00  4.2539997957646847e-03 4.2539997957646847e-03 0.0000000000000000e+00  3.7690000608563423e-03 4.7699999995529652e-03 0.0000000000000000e+00  1.6260000411421061e-03 3.3770001027733088e-03 0.0000000000000000e+00  2.6620000135153532e-03 5.0550000742077827e-03 0.0000000000000000e+00  2.3199999704957008e-03 2.9440000653266907e-03 0.0000000000000000e+00  5.8820000849664211e-03 5.4000001400709152e-03 0.0000000000000000e+00  4.6149999834597111e-03 3.6889999173581600e-03 0.0000000000000000e+00  5.4489998146891594e-03 4.2539997957646847e-03 0.0000000000000000e+00  5.9099998325109482e-03 4.8679998144507408e-03 0.0000000000000000e+00  -2.1720000077039003e-03 2.2799998987466097e-03 0.0000000000000000e+00  -7.6390001922845840e-03 1.5359999611973763e-02 0.0000000000000000e+00  -7.4950000271201134e-03 1.6119999811053276e-02 0.0000000000000000e+00  -6.5210000611841679e-03 1.6030000522732735e-02 0.0000000000000000e+00  5.0039999186992645e-03 -9.8379999399185181e-03 0.0000000000000000e+00  5.9770001098513603e-03 -8.7409997358918190e-03 0.0000000000000000e+00  1.9140000222250819e-03 -3.2520000822842121e-03 0.0000000000000000e+00  -3.7440001033246517e-03 4.3200000072829425e-04 0.0000000000000000e+00  -7.2789997793734074e-03 -1.0431000031530857e-02 0.0000000000000000e+00  -6.2159998342394829e-03 -5.2499999292194843e-03 0.0000000000000000e+00  -7.0659997873008251e-03 -8.5730003193020821e-03 0.0000000000000000e+00  5.4919999092817307e-03 1.9910000264644623e-03 0.0000000000000000e+00  6.0439999215304852e-03 2.2670000325888395e-03 0.0000000000000000e+00  3.0308000743389130e-02 8.0683000385761261e-02 0.0000000000000000e+00  3.0129000544548035e-02 7.4905000627040863e-02 0.0000000000000000e+00  2.6590999215841293e-02 7.5841002166271210e-02 0.0000000000000000e+00  2.6324000209569931e-02 8.1738002598285675e-02 0.0000000000000000e+00  1.0070099681615829e-01 3.6678001284599304e-02 0.0000000000000000e+00  9.8692998290061951e-02 4.7773998230695724e-02 0.0000000000000000e+00  1.0054200142621994e-01 4.4486001133918762e-02 0.0000000000000000e+00  1.7396999523043633e-02 2.5170000270009041e-02 0.0000000000000000e+00  3.7976000458002090e-02 1.0177000425755978e-02 0.0000000000000000e+00  3.7484999746084213e-02 1.1157999746501446e-02 0.0000000000000000e+00  1.7533000558614731e-02 3.8357000797986984e-02 0.0000000000000000e+00  3.4979999065399170e-02 1.4391999691724777e-02 0.0000000000000000e+00  3.4506000578403473e-02 1.5103000216186047e-02 0.0000000000000000e+00  2.6643000543117523e-02 6.1039999127388000e-02 0.0000000000000000e+00  3.1895000487565994e-02 6.7698001861572266e-02 0.0000000000000000e+00  2.6979999616742134e-02 5.8373000472784042e-02 0.0000000000000000e+00  2.7239000424742699e-02 5.5922999978065491e-02 0.0000000000000000e+00  2.1743999794125557e-02 4.9091998487710953e-02 0.0000000000000000e+00  3.2466001808643341e-02 6.5034002065658569e-02 0.0000000000000000e+00  3.7533998489379883e-02 7.3371000587940216e-02 0.0000000000000000e+00  3.3277001231908798e-02 6.2474999576807022e-02 0.0000000000000000e+00  3.5666000097990036e-02 5.9512998908758163e-02 0.0000000000000000e+00  3.9978999644517899e-02 6.7327998578548431e-02 0.0000000000000000e+00  4.1847001761198044e-02 6.4260996878147125e-02 0.0000000000000000e+00  1.3353000394999981e-02 8.5105001926422119e-02 0.0000000000000000e+00  1.2134999968111515e-02 8.9193001389503479e-02 0.0000000000000000e+00  2.0749999210238457e-02 9.1448999941349030e-02 0.0000000000000000e+00  2.0622000098228455e-02 9.5751002430915833e-02 0.0000000000000000e+00  1.7324000597000122e-02 7.7900001779198647e-03 0.0000000000000000e+00  1.8081000074744225e-02 8.0420002341270447e-03 0.0000000000000000e+00  6.6900001838803291e-03 3.7579999770969152e-03 0.0000000000000000e+00  7.5559997931122780e-03 4.2519997805356979e-03 0.0000000000000000e+00  4.6429999172687531e-02 7.1157999336719513e-02 0.0000000000000000e+00  6.9300003349781036e-02 7.8008003532886505e-02 0.0000000000000000e+00  7.2724997997283936e-02 7.9525001347064972e-02 0.0000000000000000e+00  7.3022000491619110e-02 7.3798000812530518e-02 0.0000000000000000e+00  6.7795999348163605e-02 8.3766996860504150e-02 0.0000000000000000e+00  3.6513999104499817e-02 7.6171003282070160e-02 0.0000000000000000e+00  2.8850000351667404e-02 1.8345000222325325e-02 0.0000000000000000e+00  3.1197000294923782e-02 1.8921000882983208e-02 0.0000000000000000e+00  2.5226000696420670e-02 1.5267999842762947e-02 0.0000000000000000e+00  5.8598000556230545e-02 1.8755000084638596e-02 0.0000000000000000e+00  5.8357998728752136e-02 1.6302000731229782e-02 0.0000000000000000e+00  5.6910999119281769e-02 1.8397999927401543e-02 0.0000000000000000e+00  5.6625001132488251e-02 1.6588000580668449e-02 0.0000000000000000e+00  5.7890001684427261e-02 1.4313000254333019e-02 0.0000000000000000e+00  5.4048001766204834e-02 1.7243999987840652e-02 0.0000000000000000e+00  5.4090999066829681e-02 1.8565999343991280e-02 0.0000000000000000e+00  5.9721998870372772e-02 1.6348000615835190e-02 0.0000000000000000e+00  7.5599999399855733e-04 8.8219996541738510e-03 0.0000000000000000e+00  -2.1720000077039003e-03 -8.7590003386139870e-03 0.0000000000000000e+00  7.5599999399855733e-04 9.2900004237890244e-03 0.0000000000000000e+00  -2.7570000384002924e-03 -1.4580000191926956e-02 0.0000000000000000e+00  -2.4399999529123306e-03 -1.6086999326944351e-02 0.0000000000000000e+00  -3.4149999264627695e-03 -2.4537999182939529e-02 0.0000000000000000e+00  -2.7320000808686018e-03 -1.8799999728798866e-02 0.0000000000000000e+00  -4.1899997740983963e-03 -3.1472999602556229e-02 0.0000000000000000e+00  -4.8520001582801342e-03 -3.3814001828432083e-02 0.0000000000000000e+00  -3.9949999190866947e-03 -2.7031999081373215e-02 0.0000000000000000e+00  4.9200002104043961e-04 8.0469995737075806e-03 0.0000000000000000e+00  -2.9992999508976936e-02 -8.5009997710585594e-03 0.0000000000000000e+00  -2.3630000650882721e-02 -3.7680000532418489e-03 0.0000000000000000e+00  6.0020000673830509e-03 1.9824000075459480e-02 0.0000000000000000e+00  8.1000002101063728e-03 2.2748000919818878e-02 0.0000000000000000e+00  6.6320002079010010e-03 2.1012999117374420e-02 0.0000000000000000e+00  8.5150003433227539e-03 2.3221999406814575e-02 0.0000000000000000e+00  6.7909997887909412e-03 2.1873999387025833e-02 0.0000000000000000e+00  7.7019999735057354e-03 1.7092999070882797e-02 0.0000000000000000e+00  6.0959998518228531e-03 1.3004000298678875e-02 0.0000000000000000e+00  6.0430001467466354e-03 1.1707999743521214e-02 0.0000000000000000e+00  -5.4012998938560486e-02 -3.2033998519182205e-02 0.0000000000000000e+00  -9.5912002027034760e-02 -9.8079003393650055e-02 0.0000000000000000e+00  -1.0151399672031403e-01 -1.0572099685668945e-01 0.0000000000000000e+00  -9.9142998456954956e-02 -9.6777997910976410e-02 0.0000000000000000e+00  -1.0172399878501892e-01 -9.5950998365879059e-02 0.0000000000000000e+00  -1.0545200109481812e-01 -1.0484199970960617e-01 0.0000000000000000e+00  -6.1563998460769653e-02 -7.9801999032497406e-02 0.0000000000000000e+00  -5.4666999727487564e-02 -8.2303002476692200e-02 0.0000000000000000e+00  -6.1964999884366989e-02 -9.0175002813339233e-02 0.0000000000000000e+00  -6.8907998502254486e-02 -9.7483001649379730e-02 0.0000000000000000e+00  -6.0208998620510101e-02 -9.9753998219966888e-02 0.0000000000000000e+00  -4.0996000170707703e-02 -2.9751999303698540e-02 0.0000000000000000e+00  -4.4518001377582550e-02 -3.9549998939037323e-02 0.0000000000000000e+00  -3.7181001156568527e-02 -3.2370999455451965e-02 0.0000000000000000e+00  -2.9957000166177750e-02 -2.5196999311447144e-02 0.0000000000000000e+00  -4.1410000994801521e-03 -2.0638000220060349e-02 0.0000000000000000e+00  -4.9829999916255474e-03 -1.0328999720513821e-02 0.0000000000000000e+00  -6.0829999856650829e-03 -1.0293999686837196e-02 0.0000000000000000e+00  7.5599999399855733e-04 1.9000000611413270e-04 0.0000000000000000e+00  7.5599999399855733e-04 0.0000000000000000e+00 0.0000000000000000e+00  7.5599999399855733e-04 1.7600000137463212e-04 0.0000000000000000e+00  7.5599999399855733e-04 3.6599999293684959e-04 0.0000000000000000e+00  -8.3400000585243106e-04 -4.7599998652003706e-04 0.0000000000000000e+00  4.7599998652003706e-04 4.6999999904073775e-04 0.0000000000000000e+00  1.2710000155493617e-03 1.1010000016540289e-03 0.0000000000000000e+00  2.3000000510364771e-05 7.8999997640494257e-05 0.0000000000000000e+00  7.5599999399855733e-04 5.7600002037361264e-04 0.0000000000000000e+00  7.5599999399855733e-04 2.3900000087451190e-04 0.0000000000000000e+00  1.0600000387057662e-03 9.5600000349804759e-04 0.0000000000000000e+00  7.5599999399855733e-04 0.0000000000000000e+00 0.0000000000000000e+00  7.5599999399855733e-04 4.8399998922832310e-04 0.0000000000000000e+00  2.0940001122653484e-03 1.7369999550282955e-03 0.0000000000000000e+00  4.4419998303055763e-03 3.4340000711381435e-03 0.0000000000000000e+00  5.0059999339282513e-03 3.9929999038577080e-03 0.0000000000000000e+00  3.6609999369829893e-03 2.8820000588893890e-03 0.0000000000000000e+00  -8.7369997054338455e-03 1.4708000235259533e-02 0.0000000000000000e+00  -7.9439999535679817e-03 1.3690000399947166e-02 0.0000000000000000e+00  -9.3470001593232155e-03 1.2507000006735325e-02 0.0000000000000000e+00  4.6780002303421497e-03 6.6300001926720142e-03 0.0000000000000000e+00  4.5400001108646393e-03 1.0023999959230423e-02 0.0000000000000000e+00  3.3070000354200602e-03 1.0967999696731567e-02 0.0000000000000000e+00  4.6769999898970127e-03 1.1882999911904335e-02 0.0000000000000000e+00  3.0030000489205122e-03 8.3090001717209816e-03 0.0000000000000000e+00  3.6130000371485949e-03 7.8739998862147331e-03 0.0000000000000000e+00  1.4590000500902534e-03 1.0893000289797783e-02 0.0000000000000000e+00  -5.0399999599903822e-04 9.8909996449947357e-03 0.0000000000000000e+00  2.5400001322850585e-04 1.3468000106513500e-02 0.0000000000000000e+00  1.5781000256538391e-02 6.8838998675346375e-02 0.0000000000000000e+00  1.3539000414311886e-02 6.0803998261690140e-02 0.0000000000000000e+00  8.7980004027485847e-03 6.3332997262477875e-02 0.0000000000000000e+00  4.0569998323917389e-02 1.0520400106906891e-01 0.0000000000000000e+00  3.4740999341011047e-02 9.9388003349304199e-02 0.0000000000000000e+00  3.5245999693870544e-02 1.0399200022220612e-01 0.0000000000000000e+00  5.8531999588012695e-02 1.4127799868583679e-01 0.0000000000000000e+00  5.8550998568534851e-02 1.4508900046348572e-01 0.0000000000000000e+00  6.0609001666307449e-02 1.4621600508689880e-01 0.0000000000000000e+00  2.6443000882863998e-02 2.6443000882863998e-02 0.0000000000000000e+00  -2.7807999402284622e-02 6.5592996776103973e-02 0.0000000000000000e+00  -3.6903001368045807e-02 6.3490003347396851e-02 0.0000000000000000e+00  -2.4493999779224396e-02 7.1381002664566040e-02 0.0000000000000000e+00  -1.5037000179290771e-02 7.3830001056194305e-02 0.0000000000000000e+00  -2.1705999970436096e-02 6.6859997808933258e-02 0.0000000000000000e+00  -1.5833999961614609e-02 6.7918002605438232e-02 0.0000000000000000e+00  2.0159000530838966e-02 9.9063001573085785e-02 0.0000000000000000e+00  2.8643000870943069e-02 1.0222899913787842e-01 0.0000000000000000e+00  2.8431000187993050e-02 1.0548099875450134e-01 0.0000000000000000e+00  3.6152001470327377e-02 1.0870400071144104e-01 0.0000000000000000e+00  5.4250000976026058e-03 7.8561998903751373e-02 0.0000000000000000e+00  -5.6929998099803925e-03 7.5359001755714417e-02 0.0000000000000000e+00  -4.8600002191960812e-03 8.0053001642227173e-02 0.0000000000000000e+00  -1.0963999666273594e-02 7.9897999763488770e-02 0.0000000000000000e+00  -1.1106000281870365e-02 8.3206996321678162e-02 0.0000000000000000e+00  -4.3600000208243728e-04 8.7573997676372528e-02 0.0000000000000000e+00  4.1880002245306969e-03 8.2497000694274902e-02 0.0000000000000000e+00  -1.4587199687957764e-01 -7.6310001313686371e-02 0.0000000000000000e+00  -1.4372499287128448e-01 -8.1886000931262970e-02 0.0000000000000000e+00  -1.5175999701023102e-01 -7.9599000513553619e-02 0.0000000000000000e+00  -1.5457600355148315e-01 -6.0497000813484192e-02 0.0000000000000000e+00  -1.5238200128078461e-01 -6.2495999038219452e-02 0.0000000000000000e+00  -1.5468500554561615e-01 -6.7859999835491180e-02 0.0000000000000000e+00  -1.4704200625419617e-01 -6.8943999707698822e-02 0.0000000000000000e+00  -1.8897999078035355e-02 -6.2765002250671387e-02 0.0000000000000000e+00  -1.6240999102592468e-02 -5.2425000816583633e-02 0.0000000000000000e+00  -1.4976000413298607e-02 -5.1332000643014908e-02 0.0000000000000000e+00  -1.9889000803232193e-02 -6.1900999397039413e-02 0.0000000000000000e+00  -3.2513998448848724e-02 -9.7777001559734344e-02 0.0000000000000000e+00  -6.2493000179529190e-02 -1.3611699640750885e-01 0.0000000000000000e+00  -5.7091001421213150e-02 -1.3828800618648529e-01 0.0000000000000000e+00  -6.4742997288703918e-02 -1.4675100147724152e-01 0.0000000000000000e+00 