<?xml version="1.0"?>
<VTKFile type="UnstructuredGrid"  version="0.1"  >
<UnstructuredGrid>
<Piece  NumberOfPoints="6340" NumberOfCells="12376">
<Points>
<DataArray  type="Float64"  NumberOfComponents="3"  format="ascii">-0.01958099938929081 0.02078600041568279 0  -0.02037600055336952 0.02150700055062771 0  -0.02057999931275845 0.02050000056624413 0  -0.02124099992215633 0.02135399915277958 0  -0.0197950005531311 0.01985999941825867 0  -0.01944500021636486 0.02167100086808205 0  -0.02003799937665462 0.02246999926865101 0  -0.01955600082874298 0.02326799929141998 0  -0.02060299925506115 0.02331499941647053 0  -0.01896600052714348 0.02238599956035614 0  -0.007728999946266413 0.01808100007474422 0  -0.008430000394582748 0.01891300082206726 0  -0.008755999617278576 0.01797099970281124 0  -0.009465999901294708 0.01884200051426888 0  -0.02564099989831448 0.07978200167417526 0  -0.02656500041484833 0.08037000149488449 0  -0.02674500085413456 0.0795769989490509 0  -0.02625500038266182 0.07307399809360504 0  -0.02686499990522861 0.07391399890184402 0  -0.0270760003477335 0.07301999628543854 0  -0.02779999934136868 0.07357999682426453 0  -0.01160799991339445 0.09014099836349487 0  -0.01252199988812208 0.0901309996843338 0  -0.01203500013798475 0.08930400013923645 0  -0.01952599920332432 0.08508100360631943 0  -0.01852300018072128 0.08509200066328049 0  -0.01897099986672401 0.0859220027923584 0  -0.01907799951732159 0.08424799889326096 0  -0.02257899940013885 0.02512099966406822 0  -0.02160700038075447 0.02507600001990795 0  -0.02206999994814396 0.02598300017416477 0  -0.02248799987137318 0.02689200080931187 0  -0.02306200005114079 0.0260429996997118 0  -0.02108900062739849 0.0259419996291399 0  -0.02060499973595142 0.02503399923443794 0  -0.01958799920976162 0.02498799934983253 0  -0.02008800022304058 0.02589200064539909 0  -0.02210900001227856 0.0241909995675087 0  -0.02317499928176403 0.02430599927902222 0  -0.02246000058948994 0.02292999997735023 0  -0.02186799980700016 0.02216400019824505 0  -0.02160999923944473 0.02326400019228458 0  -0.02099199965596199 0.02239299938082695 0  -0.01602800004184246 0.0219739992171526 0  -0.01654800027608871 0.0210960004478693 0  -0.0154830003157258 0.021076999604702 0  -0.01702100038528442 0.02209099940955639 0  -0.01803800091147423 0.02214699983596802 0  -0.01754000037908554 0.02301999926567078 0  0.0405850000679493 0.08383399993181229 0  0.04042800143361092 0.08296799659729004 0  0.0416559986770153 0.08328799903392792 0  0.04166699945926666 0.09503699839115143 0  0.04239499941468239 0.09543400257825851 0  0.04139700159430504 0.09593699872493744 0  0.02534100040793419 0.1040220037102699 0  0.02548399940133095 0.1030799970030785 0  0.02632299996912479 0.1035270020365715 0  0.0244389995932579 0.1044759973883629 0  0.02456999942660332 0.1033329963684082 0  -0.005603999830782413 0.09847400337457657 0  -0.004718000069260597 0.09853500127792358 0  -0.005253999959677458 0.09935300052165985 0  -0.004362999927252531 0.0994189977645874 0  -0.01641299948096275 0.0999390035867691 0  -0.0167980007827282 0.09922699630260468 0  -0.0157689992338419 0.09932100027799606 0  -0.01732599921524525 0.1001489982008934 0  -0.01279599964618683 0.1058629974722862 0  -0.01299799978733063 0.1067579984664917 0  -0.01355800032615662 0.1060450002551079 0  -0.009347000159323215 0.09762399643659592 0  -0.008496000431478024 0.09761700034141541 0  -0.00902900006622076 0.09844700247049332 0  -0.01019799988716841 0.09762699902057648 0  -0.009665000252425671 0.09679800271987915 0  -0.01051499973982573 0.0968020036816597 0  -0.01264700014144182 0.1000669971108437 0  -0.0131419999524951 0.1008609980344772 0  -0.01353299990296364 0.1000550016760826 0  -0.01158700045198202 0.09845100343227386 0  -0.01245700009167194 0.09845399856567383 0  -0.01191299967467785 0.097632996737957 0  0.01165799982845783 0.09474699944257736 0  0.01261700037866831 0.09473100304603577 0  0.01207699999213219 0.09559000283479691 0  0.007542999926954508 0.07864399999380112 0  0.008097999729216099 0.07780600339174271 0  0.008500999771058559 0.07862699776887894 0  -0.007420000154525042 0.01720999926328659 0  -0.006581000052392483 0.01744800060987473 0  -0.008309000171720982 0.01707600057125092 0  -0.009236999787390232 0.01693600043654442 0  -0.01298999972641468 0.01682999916374683 0  -0.01326800044625998 0.01791599951684475 0  -0.01388799957931042 0.0170230008661747 0  -0.01241599954664707 0.01773300021886826 0  -0.01245400030165911 0.01876099966466427 0  -0.01157299987971783 0.01791599951684475 0  -0.01201200019568205 0.02169300056993961 0  -0.01250100042670965 0.02073699980974197 0  -0.01152899954468012 0.02078000083565712 0  -0.01104099955409765 0.01992700062692165 0  -0.01048200018703938 0.0207739993929863 0  -0.01201499998569489 0.01978000067174435 0  -0.01299699954688549 0.0217099990695715 0  -0.01447200030088425 0.0209369994699955 0  -0.01499299984425306 0.02191199921071529 0  -0.01398800034075975 0.02179599925875664 0  -0.008949999697506428 0.01979400031268597 0  -0.01098200026899576 0.03070200048387051 0  -0.01149599999189377 0.02983300015330315 0  -0.01046399958431721 0.02977799996733665 0  -0.00532200001180172 0.02951000072062016 0  -0.005836999975144863 0.0304310005158186 0  -0.006345999892801046 0.0295609999448061 0  -0.007960000075399876 0.01987599954009056 0  -0.005396999884396791 0.01938199996948242 0  -0.006403999868780375 0.01919599995017052 0  -0.00559900002554059 0.01853499934077263 0  -0.005673999898135662 0.01770499907433987 0  -0.004670000169426203 0.01799000054597855 0  0.04360400140285492 0.09108799695968628 0  0.04451899975538254 0.09070000052452087 0  0.04408999904990196 0.0917230024933815 0  0.04306500032544136 0.09181299805641174 0  0.01679899916052818 0.05971800163388252 0  0.01785700023174286 0.05968699976801872 0  0.01736200042068958 0.06054700165987015 0  0.03087300062179565 0.04564300179481506 0  0.03137199953198433 0.04462600126862526 0  0.03183300048112869 0.04538299888372421 0  0.03288500010967255 0.04995200037956238 0  0.0338129997253418 0.0493369996547699 0  0.03412000089883804 0.05009600147604942 0  0.03248900175094604 0.0533519983291626 0  0.03155200183391571 0.0533830001950264 0  0.03211700171232224 0.05248599871993065 0  0.03171899914741516 0.05164900049567223 0  0.03272299841046333 0.05159600079059601 0  0.03113999962806702 0.05253000184893608 0  0.03058400005102158 0.05341599881649017 0  0.03069699928164482 0.05171500146389008 0  0.03018400073051453 0.05091699957847595 0  0.02966500073671341 0.05176600068807602 0  0.02913299947977066 0.05095500126481056 0  0.04107800126075745 0.0933929979801178 0  0.04008400067687035 0.09341300278902054 0  0.04063599929213524 0.09256699681282043 0  0.03966199979186058 0.0925540030002594 0  0.00876300036907196 0.02519199997186661 0  0.009541000239551067 0.02569900080561638 0  0.00875800009816885 0.02625299990177155 0  0.009607999585568905 0.02666000090539455 0  0.0286250002682209 0.0518059991300106 0  0.02449500001966953 0.0535999983549118 0  0.02399400062859058 0.05445799976587296 0  0.02344400063157082 0.05362100154161453 0  0.02503399923443794 0.05443599820137024 0  0.03102199919521809 0.05426599830389023 0  0.01981200091540813 0.03667600080370903 0  0.01890400052070618 0.03649799898266792 0  0.01934299990534782 0.0356380008161068 0  0.01411299966275692 0.04159500077366829 0  0.01315199956297874 0.04155100136995316 0  0.01363999955356121 0.04069500043988228 0  0.01267800014466047 0.04065199941396713 0  0.01219100039452314 0.04150800034403801 0  0.01220299955457449 0.03974999859929085 0  0.01316600013524294 0.03979700058698654 0  0.01362599991261959 0.04245100170373917 0  -0.02767099998891354 0.07445000112056732 0  -0.02657599933445454 0.07472699880599976 0  -0.02755399979650974 0.07524500042200089 0  -0.02590500004589558 0.07395599782466888 0  -0.0255149994045496 0.07476700097322464 0  -0.02448800019919872 0.07481200248003006 0  -0.02495899982750416 0.07560999691486359 0  -0.02391899935901165 0.07401999831199646 0  -0.02347999997437 0.07484299689531326 0  -0.02398999966681004 0.07564199715852737 0  -0.02789800055325031 0.07267200201749802 0  -0.0184129998087883 0.08675699681043625 0  -0.01941699907183647 0.08674699813127518 0  -0.01695300079882145 0.09591600298881531 0  -0.01786400005221367 0.0959480032324791 0  -0.01735500060021877 0.09510800242424011 0  -0.01826200075447559 0.09514400362968445 0  -0.01776600070297718 0.09429600089788437 0  -0.01594300009310246 0.09851299971342087 0  -0.01509100012481213 0.09850600361824036 0  -0.01483500003814697 0.099310003221035 0  -0.01297300029546022 0.08929199725389481 0  -0.01119199953973293 0.08266899734735489 0  -0.01019399985671043 0.08268199861049652 0  -0.01064199954271317 0.08351100236177444 0  -0.0101110003888607 0.0843529999256134 0  -0.00965499971061945 0.08352299779653549 0  -0.01527300011366606 0.08091499656438828 0  -0.0157880000770092 0.0800589993596077 0  -0.01480000000447035 0.08007600158452988 0  -0.01381300017237663 0.08009299635887146 0  -0.01431600004434586 0.07923799753189087 0  -0.01807799935340881 0.08426100015640259 0  -0.01763099990785122 0.08342199772596359 0  -0.01862999983131886 0.083406001329422 0  -0.01962999999523163 0.08339300006628036 0  -0.02453099936246872 0.07645300030708313 0  -0.02504000067710876 0.07895799726247787 0  -0.02460799925029278 0.07980199903249741 0  -0.02355399914085865 0.02503499947488308 0  -0.02391999959945679 0.0257399994879961 0  -0.02417200058698654 0.02643699944019318 0  -0.02444300055503845 0.02718699909746647 0  -0.02343999966979027 0.02698799967765808 0  -0.02009399980306625 0.02414700016379356 0  -0.01906700059771538 0.02408899925649166 0  -0.02112499997019768 0.02417300082743168 0  -0.02280700020492077 0.02359800040721893 0  -0.01748700067400932 0.01825400069355965 0  -0.01710399985313416 0.01901699975132942 0  -0.01830000057816505 0.01864000037312508 0  -0.01665199920535088 0.017858000472188 0  -0.01851299963891506 0.02318100072443485 0  -0.01652899943292141 0.02294299
[...]
<PointData  Vectors="velocity"> 
<DataArray  type="Float64"  Name="velocity"  NumberOfComponents="3" format="ascii">5.5900000734254718e-04 5.3100002696737647e-04 0.0000000000000000e+00  3.4999998752027750e-04 3.3999999868683517e-04 0.0000000000000000e+00  7.5599999399855733e-04 7.5599999399855733e-04 0.0000000000000000e+00  2.2499999613501132e-04 7.5599999399855733e-04 0.0000000000000000e+00  7.5599999399855733e-04 4.9499998567625880e-04 0.0000000000000000e+00  1.0199999669566751e-03 9.3099998775869608e-04 0.0000000000000000e+00  7.4400001903995872e-04 6.9299997994676232e-04 0.0000000000000000e+00  1.0539999930188060e-03 9.5800001872703433e-04 0.0000000000000000e+00  3.9199998718686402e-04 4.0399999124929309e-04 0.0000000000000000e+00  1.5930000226944685e-03 1.3920000055804849e-03 0.0000000000000000e+00  -7.2820000350475311e-03 -8.5599999874830246e-04 0.0000000000000000e+00  -5.0039999186992645e-03 1.0519999777898192e-03 0.0000000000000000e+00  -6.4179999753832817e-03 -7.7999997301958501e-05 0.0000000000000000e+00  -2.7129999361932278e-03 2.0620001014322042e-03 0.0000000000000000e+00  -3.8890000432729721e-03 -2.1150000393390656e-03 0.0000000000000000e+00  5.7769999839365482e-03 3.1198000535368919e-02 0.0000000000000000e+00  5.5430000647902489e-03 3.0727999284863472e-02 0.0000000000000000e+00  -2.5810000952333212e-03 -8.7759997695684433e-03 0.0000000000000000e+00  -2.4729999713599682e-03 -4.2809997685253620e-03 0.0000000000000000e+00  -3.1930000986903906e-03 -4.0660002268850803e-03 0.0000000000000000e+00  3.0219999607652426e-03 2.5686999782919884e-02 0.0000000000000000e+00  -5.2400000393390656e-02 -4.0167998522520065e-02 0.0000000000000000e+00  -4.6394001692533493e-02 -3.0275000259280205e-02 0.0000000000000000e+00  -5.9096001088619232e-02 -4.0832001715898514e-02 0.0000000000000000e+00  -2.8154000639915466e-02 -1.4620999805629253e-02 0.0000000000000000e+00  -3.5075001418590546e-02 -2.1013999357819557e-02 0.0000000000000000e+00  -2.6870999485254288e-02 -1.1853000149130821e-02 0.0000000000000000e+00  -3.2056000083684921e-02 -2.3073999211192131e-02 0.0000000000000000e+00  -3.2699998700991273e-04 -1.4800000644754618e-04 0.0000000000000000e+00  -4.9800000851973891e-04 -2.4699998903088272e-04 0.0000000000000000e+00  -8.2499999552965164e-04 -4.0099999750964344e-04 0.0000000000000000e+00  -1.3490000274032354e-03 -6.6199997672811151e-04 0.0000000000000000e+00  -6.0199998551979661e-04 -2.8999999631196260e-04 0.0000000000000000e+00  -9.5199997304007411e-04 -4.2600001324899495e-04 0.0000000000000000e+00  -3.4400000004097819e-04 -6.9000001531094313e-05 0.0000000000000000e+00  1.8299999646842480e-04 3.8499999209307134e-04 0.0000000000000000e+00  -8.3600002108141780e-04 -2.7099999715574086e-04 0.0000000000000000e+00  -1.7899999511428177e-04 -8.7000000348780304e-05 0.0000000000000000e+00  -7.5599999399855733e-04 1.4949999749660492e-03 0.0000000000000000e+00  -7.5599999399855733e-04 7.5599999399855733e-04 0.0000000000000000e+00  -2.7899999986402690e-04 7.5599999399855733e-04 0.0000000000000000e+00  6.6000000515487045e-05 1.0099999781232327e-04 0.0000000000000000e+00  2.5499999173916876e-04 2.5799998547881842e-04 0.0000000000000000e+00  5.1130000501871109e-03 4.0040002204477787e-03 0.0000000000000000e+00  3.8829999975860119e-03 3.1500000040978193e-03 0.0000000000000000e+00  5.0630001351237297e-03 4.0000001899898052e-03 0.0000000000000000e+00  3.8620000705122948e-03 3.1049998942762613e-03 0.0000000000000000e+00  2.5690000038594007e-03 2.1540001034736633e-03 0.0000000000000000e+00  3.1840000301599503e-03 2.5750000495463610e-03 0.0000000000000000e+00  4.9061998724937439e-02 1.0865300148725510e-01 0.0000000000000000e+00  4.7694001346826553e-02 1.0854899883270264e-01 0.0000000000000000e+00  1.6141999512910843e-02 4.1276998817920685e-02 0.0000000000000000e+00  4.5830002054572105e-03 7.4778996407985687e-02 0.0000000000000000e+00  3.2049999572336674e-03 6.9357998669147491e-02 0.0000000000000000e+00  -4.7089997678995132e-03 7.0473000407218933e-02 0.0000000000000000e+00  -1.6089700162410736e-01 -4.6363998204469681e-02 0.0000000000000000e+00  -1.5734599530696869e-01 -4.1799999773502350e-02 0.0000000000000000e+00  -1.5720100700855255e-01 -3.6855999380350113e-02 0.0000000000000000e+00  -1.6272999346256256e-01 -5.4159998893737793e-02 0.0000000000000000e+00  -1.6065999865531921e-01 -5.0011001527309418e-02 0.0000000000000000e+00  -2.5741999968886375e-02 -7.9319998621940613e-02 0.0000000000000000e+00  -3.0278999358415604e-02 -9.0534001588821411e-02 0.0000000000000000e+00  -2.7215000241994858e-02 -7.9258002340793610e-02 0.0000000000000000e+00  -3.2081000506877899e-02 -9.0107999742031097e-02 0.0000000000000000e+00  9.2470003291964531e-03 1.8791999667882919e-02 0.0000000000000000e+00  9.5499996095895767e-03 1.9876999780535698e-02 0.0000000000000000e+00  8.3309998735785484e-03 1.7325999215245247e-02 0.0000000000000000e+00  1.5355999581515789e-02 3.2733000814914703e-02 0.0000000000000000e+00  2.9799999902024865e-04 5.0420002080500126e-03 0.0000000000000000e+00  2.3522000759840012e-02 3.2251998782157898e-02 0.0000000000000000e+00  2.1906999871134758e-02 3.1982999294996262e-02 0.0000000000000000e+00  -1.1247999966144562e-02 -3.4917000681161880e-02 0.0000000000000000e+00  -1.4662000350654125e-02 -4.5216999948024750e-02 0.0000000000000000e+00  -1.0439000092446804e-02 -3.5709001123905182e-02 0.0000000000000000e+00  -8.0319996923208237e-03 -2.5095000863075256e-02 0.0000000000000000e+00  -1.2492000125348568e-02 -3.3913001418113708e-02 0.0000000000000000e+00  -9.6429996192455292e-03 -2.3718999698758125e-02 0.0000000000000000e+00  2.7469999622553587e-03 1.2550000101327896e-03 0.0000000000000000e+00  4.5079998672008514e-03 5.0360001623630524e-03 0.0000000000000000e+00  4.8290002159774303e-03 7.3629999533295631e-03 0.0000000000000000e+00  -1.8739999504759908e-03 -8.9279999956488609e-03 0.0000000000000000e+00  5.3899997146800160e-04 -1.8520000157877803e-03 0.0000000000000000e+00  -2.3660000879317522e-03 -7.7669997699558735e-03 0.0000000000000000e+00  -8.4490999579429626e-02 -1.2018200010061264e-01 0.0000000000000000e+00  -8.3042003214359283e-02 -1.1053899675607681e-01 0.0000000000000000e+00  -8.6690001189708710e-02 -1.2190599739551544e-01 0.0000000000000000e+00  -7.8330002725124359e-03 -8.2774996757507324e-02 0.0000000000000000e+00  3.3140000887215137e-03 -7.5581997632980347e-02 0.0000000000000000e+00  -3.2490000594407320e-03 -7.2929002344608307e-02 0.0000000000000000e+00  6.0439999215304852e-03 7.5599999399855733e-04 0.0000000000000000e+00  6.7360000684857368e-03 9.8600005730986595e-04 0.0000000000000000e+00  5.3190002217888832e-03 5.1400001393631101e-04 0.0000000000000000e+00  4.5630000531673431e-03 2.6199998683296144e-04 0.0000000000000000e+00  2.2670000325888395e-03 -7.5599999399855733e-04 0.0000000000000000e+00  6.8100000498816371e-04 8.1300002057105303e-04 0.0000000000000000e+00  2.2670000325888395e-03 -7.5599999399855733e-04 0.0000000000000000e+00  1.8699999782256782e-04 7.0500001311302185e-04 0.0000000000000000e+00  1.7430000007152557e-03 2.1130000241100788e-03 0.0000000000000000e+00  -4.5799999497830868e-04 8.4799999604001641e-04 0.0000000000000000e+00  7.0620002225041389e-03 7.5130001641809940e-03 0.0000000000000000e+00  5.6139999069273472e-03 5.4330001585185528e-03 0.0000000000000000e+00  5.2849999628961086e-03 6.1809998005628586e-03 0.0000000000000000e+00  3.0849999748170376e-03 4.7229998745024204e-03 0.0000000000000000e+00  4.3029999360442162e-03 6.6740000620484352e-03 0.0000000000000000e+00  3.5910001024603844e-03 4.0489998646080494e-03 0.0000000000000000e+00  7.2869998402893543e-03 6.6209998913109303e-03 0.0000000000000000e+00  5.6560002267360687e-03 4.5119998976588249e-03 0.0000000000000000e+00  6.3330000266432762e-03 4.9609998241066933e-03 0.0000000000000000e+00  7.0969997905194759e-03 5.8410000056028366e-03 0.0000000000000000e+00  -7.0199999026954174e-04 3.7479999009519815e-03 0.0000000000000000e+00  -9.1180000454187393e-03 1.5610000118613243e-02 0.0000000000000000e+00  -9.3999998643994331e-03 1.7173999920487404e-02 0.0000000000000000e+00  -7.7829998917877674e-03 1.6525000333786011e-02 0.0000000000000000e+00  8.5110003128647804e-03 -1.0493000037968159e-02 0.0000000000000000e+00  9.1869998723268509e-03 -1.0630999691784382e-02 0.0000000000000000e+00  4.4579999521374702e-03 -4.5150001533329487e-03 0.0000000000000000e+00  -2.3089998867362738e-03 1.8749999580904841e-03 0.0000000000000000e+00  -7.7909999527037144e-03 -9.1500002890825272e-03 0.0000000000000000e+00  -6.8060001358389854e-03 -4.4729998335242271e-03 0.0000000000000000e+00  -7.3779998347163200e-03 -7.5340000912547112e-03 0.0000000000000000e+00  7.4829999357461929e-03 1.2349999742582440e-03 0.0000000000000000e+00  8.3109997212886810e-03 1.5109999803826213e-03 0.0000000000000000e+00  3.0834000557661057e-02 8.0170996487140656e-02 0.0000000000000000e+00  3.0004000291228294e-02 7.3994003236293793e-02 0.0000000000000000e+00  2.7086999267339706e-02 7.5438998639583588e-02 0.0000000000000000e+00  2.7732999995350838e-02 8.1789001822471619e-02 0.0000000000000000e+00  9.6701003611087799e-02 3.2829999923706055e-02 0.0000000000000000e+00  9.4980999827384949e-02 4.3818000704050064e-02 0.0000000000000000e+00  9.7309000790119171e-02 4.0449000895023346e-02 0.0000000000000000e+00  1.9843999296426773e-02 2.8462000191211700e-02 0.0000000000000000e+00  4.3063998222351074e-02 2.7753999456763268e-02 0.0000000000000000e+00  4.3063998222351074e-02 2.8243999928236008e-02 0.0000000000000000e+00  2.0014999434351921e-02 4.1680000722408295e-02 0.0000000000000000e+00  4.2043998837471008e-02 3.1239999458193779e-02 0.0000000000000000e+00  4.1806999593973160e-02 3.1477000564336777e-02 0.0000000000000000e+00  2.7396999299526215e-02 6.5439999103546143e-02 0.0000000000000000e+00  3.2294999808073044e-02 7.1881003677845001e-02 0.0000000000000000e+00  2.7737999334931374e-02 6.2747001647949219e-02 0.0000000000000000e+00  2.8398999944329262e-02 6.0068000108003616e-02 0.0000000000000000e+00  2.2865999490022659e-02 5.3337000310420990e-02 0.0000000000000000e+00  3.2892998307943344e-02 6.9204002618789673e-02 0.0000000000000000e+00  3.7461001425981522e-02 7.7459998428821564e-02 0.0000000000000000e+00  3.4600999206304550e-02 6.6169001162052155e-02 0.0000000000000000e+00  3.6375001072883606e-02 6.3594996929168701e-02 0.0000000000000000e+00  4.0640998631715775e-02 7.0988997817039490e-02 0.0000000000000000e+00  4.2118001729249954e-02 6.8228997290134430e-02 0.0000000000000000e+00  1.6745999455451965e-02 8.6879998445510864e-02 0.0000000000000000e+00  1.5854999423027039e-02 9.0917997062206268e-02 0.0000000000000000e+00  2.3865999653935432e-02 9.2643998563289642e-02 0.0000000000000000e+00  2.3959999904036522e-02 9.6890002489089966e-02 0.0000000000000000e+00  2.2091999650001526e-02 1.3546999543905258e-02 0.0000000000000000e+00  2.3101000115275383e-02 1.4303999952971935e-02 0.0000000000000000e+00  8.7310001254081726e-03 4.8039997927844524e-03 0.0000000000000000e+00  9.5690004527568817e-03 5.2869999781250954e-03 0.0000000000000000e+00  4.6186000108718872e-02 7.4446000158786774e-02 0.0000000000000000e+00  6.6460996866226196e-02 7.8464001417160034e-02 0.0000000000000000e+00  6.9577001035213470e-02 7.9033002257347107e-02 0.0000000000000000e+00  6.9756001234054565e-02 7.3438003659248352e-02 0.0000000000000000e+00  6.5761998295783997e-02 8.3800002932548523e-02 0.0000000000000000e+00  3.6591999232769012e-02 8.0288000404834747e-02 0.0000000000000000e+00  3.3144000917673111e-02 2.1444000303745270e-02 0.0000000000000000e+00  3.5801000893115997e-02 2.1928999572992325e-02 0.0000000000000000e+00  2.9385000467300415e-02 1.7952999100089073e-02 0.0000000000000000e+00  6.0848999768495560e-02 2.1103000268340111e-02 0.0000000000000000e+00  6.0467999428510666e-02 1.8874000757932663e-02 0.0000000000000000e+00  5.9663001447916031e-02 2.1261999383568764e-02 0.0000000000000000e+00  5.9144999831914902e-02 1.9733000546693802e-02 0.0000000000000000e+00  5.9849999845027924e-02 1.7201999202370644e-02 0.0000000000000000e+00  5.7617001235485077e-02 2.0664000883698463e-02 0.0000000000000000e+00  5.7631999254226685e-02 2.1780999377369881e-02 0.0000000000000000e+00  6.1161998659372330e-02 1.8379999324679375e-02 0.0000000000000000e+00  3.5329998936504126e-03 2.6709999889135361e-02 0.0000000000000000e+00  -1.9039999460801482e-03 -5.0989999435842037e-03 0.0000000000000000e+00  4.0009999647736549e-03 2.7645999565720558e-02 0.0000000000000000e+00  -2.4570000823587179e-03 -1.0759999975562096e-02 0.0000000000000000e+00  -2.1790000610053539e-03 -1.2470000423491001e-02 0.0000000000000000e+00  -2.9430000577121973e-03 -2.0727999508380890e-02 0.0000000000000000e+00  -2.3000000510364771e-03 -1.5139999799430370e-02 0.0000000000000000e+00  -3.5389999393373728e-03 -2.7511000633239746e-02 0.0000000000000000e+00  -4.2650001123547554e-03 -3.0098000541329384e-02 0.0000000000000000e+00  -3.5159999970346689e-03 -2.3467000573873520e-02 0.0000000000000000e+00  3.0219999607652426e-03 2.5159999728202820e-02 0.0000000000000000e+00  -2.8106000274419785e-02 -9.4860000535845757e-03 0.0000000000000000e+00  -2.1997999399900436e-02 -4.3790000490844250e-03 0.0000000000000000e+00  6.4309998415410519e-03 2.0070999860763550e-02 0.0000000000000000e+00  8.5429996252059937e-03 2.2819999605417252e-02 0.0000000000000000e+00  6.8330001085996628e-03 2.1051000803709030e-02 0.0000000000000000e+00  8.8210003450512886e-03 2.2895000874996185e-02 0.0000000000000000e+00  5.7979999110102654e-03 2.0979000255465508e-02 0.0000000000000000e+00  8.3469999954104424e-03 1.8197000026702881e-02 0.0000000000000000e+00  6.6829998977482319e-03 1.4369999989867210e-02 0.0000000000000000e+00  6.5830000676214695e-03 1.3199999928474426e-02 0.0000000000000000e+00  -5.2832998335361481e-02 -3.2024998217821121e-02 0.0000000000000000e+00  -9.3456000089645386e-02 -9.6354000270366669e-02 0.0000000000000000e+00  -9.9127002060413361e-02 -1.0297299921512604e-01 0.0000000000000000e+00  -9.7560003399848938e-02 -9.4571001827716827e-02 0.0000000000000000e+00  -9.8978996276855469e-02 -9.3001000583171844e-02 0.0000000000000000e+00  -1.0354399681091309e-01 -1.0156799852848053e-01 0.0000000000000000e+00  -5.9137001633644104e-02 -7.9513996839523315e-02 0.0000000000000000e+00  -5.2352998405694962e-02 -8.1747002899646759e-02 0.0000000000000000e+00  -5.9487998485565186e-02 -8.9741997420787811e-02 0.0000000000000000e+00  -6.6132001578807831e-02 -9.6802003681659698e-02 0.0000000000000000e+00  -5.7679999619722366e-02 -9.9073998630046844e-02 0.0000000000000000e+00  -3.9030000567436218e-02 -3.0011000111699104e-02 0.0000000000000000e+00  -4.2468000203371048e-02 -3.9638999849557877e-02 0.0000000000000000e+00  -3.5284999758005142e-02 -3.2189000397920609e-02 0.0000000000000000e+00  -2.8503000736236572e-02 -2.4841999635100365e-02 0.0000000000000000e+00  -3.3720000647008419e-03 -1.7130000516772270e-02 0.0000000000000000e+00  -4.6379999257624149e-03 -7.6170000247657299e-03 0.0000000000000000e+00  -5.5769998580217361e-03 -7.6890001073479652e-03 0.0000000000000000e+00  -7.5599999399855733e-04 1.8870000494644046e-03 0.0000000000000000e+00  -7.5599999399855733e-04 2.2670000325888395e-03 0.0000000000000000e+00  -9.3199999537318945e-04 2.7950000949203968e-03 0.0000000000000000e+00  -1.1210000375285745e-03 3.3629999961704016e-03 0.0000000000000000e+00  -9.2100002802908421e-04 -4.0399999124929309e-04 0.0000000000000000e+00  4.0600000647827983e-04 4.6400001156143844e-04 0.0000000000000000e+00  1.1510000331327319e-03 1.0620000539347529e-03 0.0000000000000000e+00  -3.9999998989515007e-05 6.7000000854022801e-05 0.0000000000000000e+00  -7.5599999399855733e-04 1.1139999842271209e-03 0.0000000000000000e+00  1.2339999666437507e-03 -2.3900000087451190e-04 0.0000000000000000e+00  1.2789999600499868e-03 1.1540000559762120e-03 0.0000000000000000e+00  7.5599999399855733e-04 0.0000000000000000e+00 0.0000000000000000e+00  1.7239999724552035e-03 -4.8399998922832310e-04 0.0000000000000000e+00  1.9970000721514225e-03 1.6929999692365527e-03 0.0000000000000000e+00  4.6580000780522823e-03 3.6480000708252192e-03 0.0000000000000000e+00  4.9720001406967640e-03 4.0980000048875809e-03 0.0000000000000000e+00  3.5059999208897352e-03 2.8470000252127647e-03 0.0000000000000000e+00  -1.0670999996364117e-02 1.5618000179529190e-02 0.0000000000000000e+00  -9.3059996142983437e-03 1.3739000074565411e-02 0.0000000000000000e+00  -1.1098000220954418e-02 1.3380999676883221e-02 0.0000000000000000e+00  6.3109998591244221e-03 8.3189997822046280e-03 0.0000000000000000e+00  5.9050000272691250e-03 1.2117000296711922e-02 0.0000000000000000e+00  4.2179999873042107e-03 1.3057000003755093e-02 0.0000000000000000e+00  5.4919999092817307e-03 1.3913000002503395e-02 0.0000000000000000e+00  4.2980001308023930e-03 1.0389000177383423e-02 0.0000000000000000e+00  5.1529998891055584e-03 9.8630003631114960e-03 0.0000000000000000e+00  1.8759999657049775e-03 1.2807000428438187e-02 0.0000000000000000e+00  -3.6700000055134296e-04 1.1390999890863895e-02 0.0000000000000000e+00  -9.7999996796716005e-05 1.5151999890804291e-02 0.0000000000000000e+00  1.9959999248385429e-02 6.8920001387596130e-02 0.0000000000000000e+00  1.7659999430179596e-02 6.0678001493215561e-02 0.0000000000000000e+00  1.3960000127553940e-02 6.3952997326850891e-02 0.0000000000000000e+00  4.2006999254226685e-02 1.0535199940204620e-01 0.0000000000000000e+00  3.6591000854969025e-02 9.9744997918605804e-02 0.0000000000000000e+00  3.7275001406669617e-02 1.0432200133800507e-01 0.0000000000000000e+00  5.9443000704050064e-02 1.4044299721717834e-01 0.0000000000000000e+00  5.9268999844789505e-02 1.4385199546813965e-01 0.0000000000000000e+00  6.1381001025438309e-02 1.4506100118160248e-01 0.0000000000000000e+00  1.6620999202132225e-02 4.0796998888254166e-02 0.0000000000000000e+00  -2.2114999592304230e-02 6.9470003247261047e-02 0.0000000000000000e+00  -3.1668998301029205e-02 6.7682996392250061e-02 0.0000000000000000e+00  -1.8241999670863152e-02 7.4646003544330597e-02 0.0000000000000000e+00  -8.6300000548362732e-03 7.6817996799945831e-02 0.0000000000000000e+00  -1.5738999471068382e-02 7.0524998009204865e-02 0.0000000000000000e+00  -9.9179996177554131e-03 7.1047998964786530e-02 0.0000000000000000e+00  2.3971000686287880e-02 1.0053499788045883e-01 0.0000000000000000e+00  3.1369000673294067e-02 1.0291899740695953e-01 0.0000000000000000e+00  3.1633000820875168e-02 1.0652799904346466e-01 0.0000000000000000e+00  3.8284000009298325e-02 1.0902799665927887e-01 0.0000000000000000e+00  1.0684000328183174e-02 8.0279998481273651e-02 0.0000000000000000e+00  4.1400000918656588e-04 7.7610999345779419e-02 0.0000000000000000e+00  1.2169999536126852e-03 8.2631997764110565e-02 0.0000000000000000e+00  -4.9609998241066933e-03 8.2539997994899750e-02 0.0000000000000000e+00  -5.9000002220273018e-03 8.5835002362728119e-02 0.0000000000000000e+00  4.3399999849498272e-03 8.9930996298789978e-02 0.0000000000000000e+00  8.5909999907016754e-03 8.4638997912406921e-02 0.0000000000000000e+00  -1.6258400678634644e-01 -6.8724997341632843e-02 0.0000000000000000e+00  -1.6060799360275269e-01 -7.4079997837543488e-02 0.0000000000000000e+00  -1.6478900611400604e-01 -7.3452003300189972e-02 0.0000000000000000e+00  -1.5996700525283813e-01 -5.6903999298810959e-02 0.0000000000000000e+00  -1.6361400485038757e-01 -5.6976001709699631e-02 0.0000000000000000e+00  -1.6432599723339081e-01 -6.2948003411293030e-02 0.0000000000000000e+00  -1.6305500268936157e-01 -6.1804998666048050e-02 0.0000000000000000e+00  -1.7535999417304993e-02 -5.7225000113248825e-02 0.0000000000000000e+00  -1.4608999714255333e-02 -4.7185998409986496e-02 0.0000000000000000e+00  -1.3872999697923660e-02 -4.6294998377561569e-02 0.0000000000000000e+00  -1.8347000703215599e-02 -5.6543998420238495e-02 0.0000000000000000e+00  -3.0292000621557236e-02 -9.0553998947143555e-02 0.0000000000000000e+00  -5.7321999222040176e-02 -1.2890499830245972e-01 0.0000000000000000e+00  -5.2806001156568527e-02 -1.3062100112438202e-01 0.0000000000000000e+00  -6.0051999986171722e-02 -1.3947899639606476e-01 0.00000000000000