<?xml version="1.0"?>
<VTKFile type="UnstructuredGrid"  version="0.1"  >
<UnstructuredGrid>
<Piece  NumberOfPoints="6340" NumberOfCells="12376">
<Points>
<DataArray  type="Float64"  NumberOfComponents="3"  format="ascii">-0.01942300051450729 0.02083100005984306 0  -0.02004100009799004 0.02147400006651878 0  -0.02027999982237816 0.02050000056624413 0  -0.02076799981296062 0.02120999991893768 0  -0.01966400071978569 0.01991499960422516 0  -0.01924999989569187 0.02170299924910069 0  -0.01969300024211407 0.0224239993840456 0  -0.01923700049519539 0.02324100024998188 0  -0.02010300010442734 0.02313899993896484 0  -0.01880200020968914 0.02242599986493587 0  -0.009131000377237797 0.01769700087606907 0  -0.009727999567985535 0.01860699988901615 0  -0.01006400026381016 0.01766999997198582 0  -0.01066699996590614 0.01861900091171265 0  -0.02432399988174438 0.07293300330638885 0  -0.02521399967372417 0.07326799631118774 0  -0.0253749992698431 0.07249999791383743 0  -0.02479100041091442 0.06660299748182297 0  -0.02539400011301041 0.06724599748849869 0  -0.02557400055229664 0.06637100130319595 0  -0.0262800008058548 0.06673000007867813 0  -0.01205000001937151 0.08494500070810318 0  -0.01289799995720387 0.08477099984884262 0  -0.01233899965882301 0.08417399972677231 0  -0.01868100091814995 0.07908199727535248 0  -0.01774599961936474 0.07930199801921844 0  -0.01823800057172775 0.07993599772453308 0  -0.01819399930536747 0.07844199985265732 0  -0.02162200026214123 0.02446899935603142 0  -0.0208129994571209 0.0246370006352663 0  -0.0211389996111393 0.02535500004887581 0  -0.02142699994146824 0.02608500048518181 0  -0.02196300029754639 0.02519599907100201 0  -0.0203230008482933 0.02552900090813637 0  -0.01998399943113327 0.02475200034677982 0  -0.0191430002450943 0.02485099993646145 0  -0.01949499920010567 0.02562999911606312 0  -0.02129199914634228 0.02373199909925461 0  -0.02217400074005127 0.02360700070858002 0  -0.02167000062763691 0.02252000011503696 0  -0.02123199962079525 0.02188399992883205 0  -0.02094200067222118 0.0229519996792078 0  -0.02048899978399277 0.02222000062465668 0  -0.01634100079536438 0.02211399935185909 0  -0.01683899946510792 0.0212399996817112 0  -0.01592000015079975 0.02120899967849255 0  -0.0171900000423193 0.02223899960517883 0  -0.01803899928927422 0.02224100008606911 0  -0.01756400056183338 0.02311999909579754 0  0.04152699932456017 0.07715799659490585 0  0.04117200151085854 0.0763389989733696 0  0.04245200008153915 0.0764319971203804 0  0.04470099881291389 0.08697699755430222 0  0.04548599943518639 0.08720800280570984 0  0.04438399896025658 0.08771699666976929 0  0.02664400078356266 0.0959170013666153 0  0.02682200074195862 0.09515699744224548 0  0.02772900089621544 0.09541500359773636 0  0.02564699947834015 0.09637799859046936 0  0.0258179996162653 0.09546100348234177 0  -0.006932000163942575 0.09301500022411346 0  -0.006053000222891569 0.09323800355195999 0  -0.006637999787926674 0.09381899982690811 0  -0.005748999770730734 0.09404700249433517 0  -0.01754800044000149 0.09214899688959122 0  -0.01785599999129772 0.09149699658155441 0  -0.01687699928879738 0.09175600111484528 0  -0.01844099909067154 0.09216099977493286 0  -0.014487000182271 0.09774699807167053 0  -0.0147529998794198 0.09845799952745438 0  -0.01523800007998943 0.09774500131607056 0  -0.01051099970936775 0.09153000265359879 0  -0.009688000194728374 0.09169399738311768 0  -0.01026799995452166 0.09228300303220749 0  -0.0113359997048974 0.09137099981307983 0  -0.01075499970465899 0.09078399837017059 0  -0.01157999970018864 0.09062500298023224 0  -0.0138950003311038 0.09293399751186371 0  -0.01443600002676249 0.09350000321865082 0  -0.01475400011986494 0.09275999665260315 0  -0.01274500042200089 0.09179200232028961 0  -0.01358999963849783 0.09163500368595123 0  -0.01300099957734346 0.09105599671602249 0  0.01191200036555529 0.09014599770307541 0  0.01295999996364117 0.09002400189638138 0  0.01235000044107437 0.09076400101184845 0  0.007801000028848648 0.07790099829435349 0  0.00825200043618679 0.07709900289773941 0  0.008848000317811966 0.07777900248765945 0  -0.0088900001719594 0.01678000018000603 0  -0.008129999972879887 0.01693899929523468 0  -0.009699000045657158 0.01671599969267845 0  -0.01054299995303154 0.01664900034666061 0  -0.01393999997526407 0.01680999994277954 0  -0.01413299981504679 0.01792700029909611 0  -0.01472599990665913 0.01705200038850307 0  -0.01338199991732836 0.01769199967384338 0  -0.01337100006639957 0.01874200068414211 0  -0.0126120001077652 0.01782199926674366 0  -0.0128370001912117 0.02169599942862988 0  -0.01331700012087822 0.02075099945068359 0  -0.01244699954986572 0.02074000053107738 0  -0.0120430001989007 0.01983699947595596 0  -0.01150199957191944 0.02066200040280819 0  -0.01293000020086765 0.01975299976766109 0  -0.0137090003117919 0.021764000877738 0  -0.01505399961024523 0.02105499990284443 0  -0.01545100007206202 0.02204000018537045 0  -0.01458400022238493 0.02190200053155422 0  -0.01015899982303381 0.0195509996265173 0  -0.01148600038141012 0.03078900091350079 0  -0.01198399998247623 0.02993299998342991 0  -0.0110719995573163 0.0298250000923872 0  -0.006457999814301729 0.02919499948620796 0  -0.006883000023663044 0.03018100000917912 0  -0.007381000090390444 0.0293320007622242 0  -0.00926200021058321 0.01955400034785271 0  -0.006984999869018793 0.01880400069057941 0  -0.007891999557614326 0.01871700026094913 0  -0.007203999906778336 0.01795499958097935 0  -0.007309000007808208 0.01710999943315983 0  -0.006399999838322401 0.01730000041425228 0  0.04664599895477295 0.08352600038051605 0  0.04737399891018867 0.08299499750137329 0  0.04733499884605408 0.08404599875211716 0  0.04630599915981293 0.08427300304174423 0  0.01454299967736006 0.05770700052380562 0  0.0155009999871254 0.05748099833726883 0  0.01510700024664402 0.05841799825429916 0  0.02644000016152859 0.04124600067734718 0  0.02682100050151348 0.04016000032424927 0  0.02730800025165081 0.04079699888825417 0  0.02876400016248226 0.04496899992227554 0  0.02959099970757961 0.04418199881911278 0  0.02998599968850613 0.04484700039029121 0  0.02881399914622307 0.04833399876952171 0  0.02789700031280518 0.04854800179600716 0  0.02833499945700169 0.04756699874997139 0  0.02784200012683868 0.04684599861502647 0  0.02881300076842308 0.04658300057053566 0  0.02738899923861027 0.0478149987757206 0  0.0269590001553297 0.04878399893641472 0  0.02685399912297726 0.04712399840354919 0  0.02627299912273884 0.04646699875593185 0  0.02586599998176098 0.04739100113511086 0  0.02527900040149689 0.04672599956393242 0  0.04409699887037277 0.08574499934911728 0  0.04301000013947487 0.08587300032377243 0  0.04363299906253815 0.08514399826526642 0  0.04256900027394295 0.08524399995803833 0  0.005572000052779913 0.02287999913096428 0  0.006273000035434961 0.02332000061869621 0  0.005621000193059444 0.02397900074720383 0  0.006378999911248684 0.02430799975991249 0  0.0248819999396801 0.04764999821782112 0  0.021161999553442 0.05024199932813644 0  0.02076699957251549 0.05117399990558624 0  0.02019100077450275 0.0504780001938343 0  0.02173599973320961 0.05093700066208839 0  0.02749600075185299 0.04951599985361099 0  0.01597700081765652 0.03381799906492233 0  0.01515499968081713 0.03371699899435043 0  0.01550200022757053 0.03278499841690063 0  0.01114699989557266 0.03941800072789192 0  0.01028599962592125 0.03944800049066544 0  0.01067500002682209 0.0385189987719059 0  0.009813000448048115 0.0385500006377697 0  0.009424000047147274 0.03947699815034866 0  0.009339000098407269 0.03765000030398369 0  0.01020199991762638 0.03762200102210045 0  0.0107580004259944 0.04034699872136116 0  -0.02617499977350235 0.06756599992513657 0  -0.02513400092720985 0.06806500256061554 0  -0.02607900090515614 0.06833100318908691 0  -0.02447899989783764 0.06749700009822845 0  -0.02412299998104572 0.06833700090646744 0  -0.02314300090074539 0.06860499829053879 0  -0.02360899932682514 0.069241002202034 0  -0.0225830003619194 0.06799499690532684 0  -0.02218200080096722 0.06885600090026855 0  -0.02268500067293644 0.06948599964380264 0  -0.02635000087320805 0.06586799770593643 0  -0.0178030002862215 0.08077999949455261 0  -0.01872799918055534 0.08056700229644775 0  -0.01768800057470798 0.08874599635601044 0  -0.01854399964213371 0.08860799670219421 0  -0.01797500066459179 0.08800599724054337 0  -0.01882800087332726 0.08787199854850769 0  -0.01826299913227558 0.08726000040769577 0  -0.01697400026023388 0.09106200188398361 0  -0.01615599915385246 0.09120699763298035 0  -0.01596999913454056 0.09191299974918365 0  -0.01319499965757132 0.08399000018835068 0  -0.01068400032818317 0.07871100306510925 0  -0.009752999991178513 0.07893099635839462 0  -0.01025899965316057 0.07955799996852875 0  -0.009879999794065952 0.08038700371980667 0  -0.009355000220239162 0.07976700365543365 0  -0.0144429998472333 0.07625800371170044 0  -0.01492100022733212 0.07536099851131439 0  -0.01397900003939867 0.07559400051832199 0  -0.01303599961102009 0.07582800090312958 0  -0.01350400038063526 0.0749329999089241 0  -0.017255999147892 0.07866600155830383 0  -0.01678399927914143 0.07801199704408646 0  -0.01772800087928772 0.07778099924325943 0  -0.01867399923503399 0.07755199819803238 0  -0.0232159998267889 0.07011699676513672 0  -0.02373900078237057 0.07230799645185471 0  -0.02333799935877323 0.0731780007481575 0  -0.02244099974632263 0.02418299950659275 0  -0.0227000005543232 0.02473999932408333 0  -0.02287499979138374 0.02528299950063229 0  -0.02306300029158592 0.02586800046265125 0  -0.02221900038421154 0.02595699951052666 0  -0.01962199993431568 0.02398999966681004 0  -0.0187740009278059 0.02407900057733059 0  -0.02047500014305115 0.02387199923396111 0  -0.0219149999320507 0.02304700016975403 0  -0.01781000010669231 0.01840399950742722 0  -0.01743699982762337 0.01916499994695187 0  -0.01848999969661236 0.01879999972879887 0  -0.0171119999140501 0.01799900084733963 0  -0.01836900040507317 0.02322600036859512 0  -0.016719000414
[...]
<PointData  Vectors="velocity"> 
<DataArray  type="Float64"  Name="velocity"  NumberOfComponents="3" format="ascii">4.5850002206861973e-03 -9.6899998607113957e-04 0.0000000000000000e+00  4.2530000209808350e-03 -6.4300000667572021e-04 0.0000000000000000e+00  1.5109999803826213e-03 0.0000000000000000e+00 0.0000000000000000e+00  2.0419999491423368e-03 -5.3100002696737647e-04 0.0000000000000000e+00  9.9099997896701097e-04 2.6000000070780516e-04 0.0000000000000000e+00  7.3339999653398991e-03 -2.9200001154094934e-04 0.0000000000000000e+00  7.6410002075135708e-03 3.6500001442618668e-04 0.0000000000000000e+00  1.0898999869823456e-02 1.1099999537691474e-03 0.0000000000000000e+00  7.8800003975629807e-03 9.8899996373802423e-04 0.0000000000000000e+00  1.0573999956250191e-02 2.1800000104121864e-04 0.0000000000000000e+00  2.0983999595046043e-02 -1.5731999650597572e-02 0.0000000000000000e+00  1.1158999986946583e-02 -2.0787000656127930e-02 0.0000000000000000e+00  2.1480999886989594e-02 -1.4589999802410603e-02 0.0000000000000000e+00  1.4186000451445580e-02 -1.8485000357031822e-02 0.0000000000000000e+00  -2.0608000457286835e-02 -7.9823002219200134e-02 0.0000000000000000e+00  8.5770003497600555e-03 -3.1198000535368919e-02 0.0000000000000000e+00  8.8120000436902046e-03 -3.0727999284863472e-02 0.0000000000000000e+00  -1.0649000294506550e-02 -9.1550998389720917e-02 0.0000000000000000e+00  -1.1820999905467033e-02 -8.3958998322486877e-02 0.0000000000000000e+00  -1.0680999606847763e-02 -8.3269998431205750e-02 0.0000000000000000e+00  1.2844000011682510e-02 -2.7953999117016792e-02 0.0000000000000000e+00  -7.5363002717494965e-02 -1.2506699562072754e-01 0.0000000000000000e+00  -7.1056000888347626e-02 -1.2233299762010574e-01 0.0000000000000000e+00  -7.1387998759746552e-02 -1.2696699798107147e-01 0.0000000000000000e+00  -3.8989998400211334e-02 -1.0785699635744095e-01 0.0000000000000000e+00  -4.2245998978614807e-02 -1.1434400081634521e-01 0.0000000000000000e+00  -4.0757998824119568e-02 -1.0826999694108963e-01 0.0000000000000000e+00  -4.0904998779296875e-02 -1.1418599635362625e-01 0.0000000000000000e+00  3.6440000403672457e-03 -3.5200000274926424e-04 0.0000000000000000e+00  6.3680000603199005e-03 4.8399998922832310e-04 0.0000000000000000e+00  6.1550000682473183e-03 7.7400001464411616e-04 0.0000000000000000e+00  5.4589998908340931e-03 6.6199997672811151e-04 0.0000000000000000e+00  3.5689999349415302e-03 -7.5000003562308848e-05 0.0000000000000000e+00  8.7109999731183052e-03 1.3020000187680125e-03 0.0000000000000000e+00  9.7230002284049988e-03 1.4530000044032931e-03 0.0000000000000000e+00  1.3446000404655933e-02 2.3260000161826611e-03 0.0000000000000000e+00  1.1548000387847424e-02 1.7500000540167093e-03 0.0000000000000000e+00  3.9969999343156815e-03 -2.7300001238472760e-04 0.0000000000000000e+00  4.1319997981190681e-03 -2.6209999341517687e-03 0.0000000000000000e+00  3.0219999607652426e-03 -1.5109999803826213e-03 0.0000000000000000e+00  2.5460000615566969e-03 -1.0349999647587538e-03 0.0000000000000000e+00  4.7450000420212746e-03 2.8099998598918319e-04 0.0000000000000000e+00  4.6149999834597111e-03 -1.3400000170804560e-04 0.0000000000000000e+00  1.6968000680208206e-02 -2.9349999967962503e-03 0.0000000000000000e+00  1.3624000363051891e-02 -2.8629999142140150e-03 0.0000000000000000e+00  1.5681000426411629e-02 -4.7380002215504646e-03 0.0000000000000000e+00  1.5085999853909016e-02 -1.4359999913722277e-03 0.0000000000000000e+00  1.2563999742269516e-02 -4.6700000530108809e-04 0.0000000000000000e+00  1.5879999846220016e-02 -9.8999997135251760e-05 0.0000000000000000e+00  5.6680999696254730e-02 8.0210000276565552e-02 0.0000000000000000e+00  5.5367000401020050e-02 8.2616999745368958e-02 0.0000000000000000e+00  -1.2051999568939209e-02 -3.4752998501062393e-02 0.0000000000000000e+00  6.2026001513004303e-02 7.8657001256942749e-02 0.0000000000000000e+00  5.8125998824834824e-02 6.9287002086639404e-02 0.0000000000000000e+00  6.4946003258228302e-02 8.4715999662876129e-02 0.0000000000000000e+00  -4.8875000327825546e-02 1.2126100063323975e-01 0.0000000000000000e+00  -4.2869001626968384e-02 1.3258700072765350e-01 0.0000000000000000e+00  -3.6146000027656555e-02 1.3126499950885773e-01 0.0000000000000000e+00  -6.0233000665903091e-02 1.1170899868011475e-01 0.0000000000000000e+00  -5.3996000438928604e-02 1.2529799342155457e-01 0.0000000000000000e+00  -1.0540399700403214e-01 -9.7483001649379730e-02 0.0000000000000000e+00  -1.1021900177001953e-01 -9.8619997501373291e-02 0.0000000000000000e+00  -1.0058800131082535e-01 -9.2597998678684235e-02 0.0000000000000000e+00  -1.0518699884414673e-01 -9.3131996691226959e-02 0.0000000000000000e+00  -3.1507998704910278e-02 -4.4635001569986343e-02 0.0000000000000000e+00  -3.3204000443220139e-02 -4.7269001603126526e-02 0.0000000000000000e+00  -3.7996001541614532e-02 -5.0634000450372696e-02 0.0000000000000000e+00  1.1823999695479870e-02 -3.7530001252889633e-02 0.0000000000000000e+00  -2.7320999652147293e-02 -3.0101999640464783e-02 0.0000000000000000e+00  8.8900001719594002e-04 -4.2073000222444534e-02 0.0000000000000000e+00  2.7739999350160360e-03 -4.1804000735282898e-02 0.0000000000000000e+00  -8.4541998803615570e-02 -9.1797001659870148e-02 0.0000000000000000e+00  -8.9975997805595398e-02 -9.4970002770423889e-02 0.0000000000000000e+00  -8.4073998034000397e-02 -8.7521001696586609e-02 0.0000000000000000e+00  -7.8799001872539520e-02 -8.8041998445987701e-02 0.0000000000000000e+00  -8.6166001856327057e-02 -9.6061997115612030e-02 0.0000000000000000e+00  -8.0761000514030457e-02 -9.2422999441623688e-02 0.0000000000000000e+00  -5.1001999527215958e-02 -5.9808999300003052e-02 0.0000000000000000e+00  -4.3003000319004059e-02 -5.2363999187946320e-02 0.0000000000000000e+00  -4.5797001570463181e-02 -5.5706001818180084e-02 0.0000000000000000e+00  -6.7100003361701965e-02 -7.5967997312545776e-02 0.0000000000000000e+00  -6.1275001615285873e-02 -7.1768000721931458e-02 0.0000000000000000e+00  -6.7247003316879272e-02 -7.9972997307777405e-02 0.0000000000000000e+00  -7.6812997460365295e-02 8.2702003419399261e-02 0.0000000000000000e+00  -6.8576000630855560e-02 9.6960999071598053e-02 0.0000000000000000e+00  -8.6322002112865448e-02 8.3866000175476074e-02 0.0000000000000000e+00  4.9919001758098602e-02 1.1010000109672546e-01 0.0000000000000000e+00  5.1451999694108963e-02 1.1918299645185471e-01 0.0000000000000000e+00  5.7002998888492584e-02 1.2215799838304520e-01 0.0000000000000000e+00  1.5109999803826213e-03 -7.5599999399855733e-04 0.0000000000000000e+00  1.5109999803826213e-03 -5.2499998128041625e-04 0.0000000000000000e+00  1.2690000003203750e-03 -5.1400001393631101e-04 0.0000000000000000e+00  1.0169999441131949e-03 -2.6199998683296144e-04 0.0000000000000000e+00  0.0000000000000000e+00 7.5599999399855733e-04 0.0000000000000000e+00  1.3278000056743622e-02 -8.1430003046989441e-03 0.0000000000000000e+00  0.0000000000000000e+00 7.5599999399855733e-04 0.0000000000000000e+00  1.6285000368952751e-02 -8.7259998545050621e-03 0.0000000000000000e+00  1.4413000084459782e-02 -1.2289999984204769e-02 0.0000000000000000e+00  1.7859999090433121e-02 -1.1008000001311302e-02 0.0000000000000000e+00  1.9663000479340553e-02 -1.1401000432670116e-02 0.0000000000000000e+00  1.7139999195933342e-02 -1.2024000287055969e-02 0.0000000000000000e+00  1.6900999471545219e-02 -1.4178999699652195e-02 0.0000000000000000e+00  1.4956000261008739e-02 -1.6191000118851662e-02 0.0000000000000000e+00  1.5851000323891640e-02 -1.6412999480962753e-02 0.0000000000000000e+00  1.5302999876439571e-02 -1.4008999802172184e-02 0.0000000000000000e+00  1.9809000194072723e-02 -9.2160003259778023e-03 0.0000000000000000e+00  1.6767999157309532e-02 -6.9880001246929169e-03 0.0000000000000000e+00  1.8605999648571014e-02 -4.7920001670718193e-03 0.0000000000000000e+00  1.9510999321937561e-02 -6.9289999082684517e-03 0.0000000000000000e+00  1.1064000427722931e-02 -2.0480999723076820e-02 0.0000000000000000e+00  4.7104001045227051e-02 1.4369999989867210e-03 0.0000000000000000e+00  4.1866000741720200e-02 2.0469999872148037e-03 0.0000000000000000e+00  4.6806000173091888e-02 3.1540000345557928e-03 0.0000000000000000e+00  6.7120999097824097e-02 6.9849998690187931e-03 0.0000000000000000e+00  7.4680000543594360e-02 6.7199999466538429e-03 0.0000000000000000e+00  6.3721999526023865e-02 7.2030001319944859e-03 0.0000000000000000e+00  7.0650000125169754e-03 -2.2423999384045601e-02 0.0000000000000000e+00  -9.3740001320838928e-03 -2.6703000068664551e-02 0.0000000000000000e+00  -8.0199999501928687e-04 -2.5142999365925789e-02 0.0000000000000000e+00  2.3860000073909760e-03 -2.3194000124931335e-02 0.0000000000000000e+00  1.5109999803826213e-03 -2.7600000612437725e-04 0.0000000000000000e+00  1.5109999803826213e-03 0.0000000000000000e+00 0.0000000000000000e+00  3.9246000349521637e-02 3.8561999797821045e-02 0.0000000000000000e+00  3.2524000853300095e-02 2.7295000851154327e-02 0.0000000000000000e+00  3.6816000938415527e-02 3.3362999558448792e-02 0.0000000000000000e+00  4.4456001371145248e-02 4.6835001558065414e-02 0.0000000000000000e+00  7.6838999986648560e-02 1.6075700521469116e-01 0.0000000000000000e+00  7.9462997615337372e-02 1.6837799549102783e-01 0.0000000000000000e+00  6.2056999653577805e-02 1.6891099512577057e-01 0.0000000000000000e+00  3.1975999474525452e-02 3.1458999961614609e-02 0.0000000000000000e+00  -1.2844000011682510e-02 -1.5188000164926052e-02 0.0000000000000000e+00  -1.2844000011682510e-02 -1.5923000872135162e-02 0.0000000000000000e+00  3.8518000394105911e-02 5.1782000809907913e-02 0.0000000000000000e+00  -1.4127999544143677e-02 -1.8924999982118607e-02 0.0000000000000000e+00  -1.4601999893784523e-02 -1.9635999575257301e-02 0.0000000000000000e+00  5.9769999235868454e-02 9.3121998012065887e-02 0.0000000000000000e+00  7.1998000144958496e-02 1.0654199868440628e-01 0.0000000000000000e+00  6.1691999435424805e-02 8.9126996695995331e-02 0.0000000000000000e+00  6.3537001609802246e-02 8.5681997239589691e-02 0.0000000000000000e+00  4.9610000103712082e-02 7.0819996297359467e-02 0.0000000000000000e+00  7.4900999665260315e-02 1.0323499888181686e-01 0.0000000000000000e+00  8.3981998264789581e-02 1.1942200362682343e-01 0.0000000000000000e+00  7.7839002013206482e-02 1.0059300065040588e-01 0.0000000000000000e+00  8.1160999834537506e-02 9.8764002323150635e-02 0.0000000000000000e+00  9.1164998710155487e-02 1.1398600041866302e-01 0.0000000000000000e+00  9.4738997519016266e-02 1.1199600249528885e-01 0.0000000000000000e+00  6.2633000314235687e-02 8.3425000309944153e-02 0.0000000000000000e+00  6.8534001708030701e-02 1.0031899809837341e-01 0.0000000000000000e+00  6.3882999122142792e-02 8.8431000709533691e-02 0.0000000000000000e+00  6.9697998464107513e-02 1.0561899840831757e-01 0.0000000000000000e+00  -3.7249999586492777e-03 -1.7450000159442425e-03 0.0000000000000000e+00  -4.4820001348853111e-03 -1.9980000797659159e-03 0.0000000000000000e+00  -1.6590999439358711e-02 -1.2315000407397747e-02 0.0000000000000000e+00  -1.6047999262809753e-02 -1.1718000285327435e-02 0.0000000000000000e+00  1.0316299647092819e-01 1.2571699917316437e-01 0.0000000000000000e+00  1.3240300118923187e-01 1.6169500350952148e-01 0.0000000000000000e+00  1.3136999309062958e-01 1.6581700742244720e-01 0.0000000000000000e+00  1.3608600199222565e-01 1.6261799633502960e-01 0.0000000000000000e+00  1.2752699851989746e-01 1.6468499600887299e-01 0.0000000000000000e+00  7.9759001731872559e-02 1.2257199734449387e-01 0.0000000000000000e+00  4.7061000019311905e-02 3.0217999592423439e-02 0.0000000000000000e+00  5.4373998194932938e-02 3.4099001437425613e-02 0.0000000000000000e+00  3.4676998853683472e-02 2.1749999374151230e-02 0.0000000000000000e+00  1.8355600535869598e-01 1.0520700365304947e-01 0.0000000000000000e+00  1.9000700116157532e-01 1.0436200350522995e-01 0.0000000000000000e+00  1.8007199466228485e-01 9.7693003714084625e-02 0.0000000000000000e+00  1.8738399446010590e-01 9.6702001988887787e-02 0.0000000000000000e+00  1.9612400233745575e-01 1.0277999937534332e-01 0.0000000000000000e+00  1.8358799815177917e-01 8.8425002992153168e-02 0.0000000000000000e+00  1.7596399784088135e-01 8.9336998760700226e-02 0.0000000000000000e+00  1.9111900031566620e-01 1.1133799701929092e-01 0.0000000000000000e+00  1.2076999992132187e-02 -2.8465000912547112e-02 0.0000000000000000e+00  -1.3020999729633331e-02 -8.5135996341705322e-02 0.0000000000000000e+00  1.1374999769032001e-02 -2.8932999819517136e-02 0.0000000000000000e+00  -1.2458000332117081e-02 -9.3390002846717834e-02 0.0000000000000000e+00  -1.4472999610006809e-02 -9.5471002161502838e-02 0.0000000000000000e+00  -1.6777999699115753e-02 -1.0592500120401382e-01 0.0000000000000000e+00  -1.7727000638842583e-02 -9.8977997899055481e-02 0.0000000000000000e+00  -1.6040999442338943e-02 -1.1406099796295166e-01 0.0000000000000000e+00  -1.9723000004887581e-02 -1.1613799631595612e-01 0.0000000000000000e+00  -2.0430000498890877e-02 -1.0852000117301941e-01 0.0000000000000000e+00  1.3371000066399574e-02 -2.7690000832080841e-02 0.0000000000000000e+00  -4.2504001408815384e-02 -1.0846000164747238e-01 0.0000000000000000e+00  -3.9007999002933502e-02 -1.0198500007390976e-01 0.0000000000000000e+00  -4.3983001261949539e-02 -6.6554002463817596e-02 0.0000000000000000e+00  -3.8644999265670776e-02 -6.1689998954534531e-02 0.0000000000000000e+00  -4.2831998318433762e-02 -6.9357000291347504e-02 0.0000000000000000e+00  -3.7916000932455063e-02 -6.4493998885154724e-02 0.0000000000000000e+00  -4.1421998292207718e-02 -7.1979001164436340e-02 0.0000000000000000e+00  -3.9060998708009720e-02 -5.4565999656915665e-02 0.0000000000000000e+00  -4.4155001640319824e-02 -5.8612998574972153e-02 0.0000000000000000e+00  -4.3572001159191132e-02 -5.5004000663757324e-02 0.0000000000000000e+00  -6.7515999078750610e-02 -1.2459599971771240e-01 0.0000000000000000e+00  -5.8655999600887299e-02 -1.3853700459003448e-01 0.0000000000000000e+00  -5.8557000011205673e-02 -1.3386300206184387e-01 0.0000000000000000e+00  -5.9431999921798706e-02 -1.3575600087642670e-01 0.0000000000000000e+00  -6.1133999377489090e-02 -1.3386900722980499e-01 0.0000000000000000e+00  -5.9767000377178192e-02 -1.3197299838066101e-01 0.0000000000000000e+00  -5.4923001676797867e-02 -1.4430600404739380e-01 0.0000000000000000e+00  -5.4437998682260513e-02 -1.4595699310302734e-01 0.0000000000000000e+00  -5.6876998394727707e-02 -1.4823000133037567e-01 0.0000000000000000e+00  -5.8304999023675919e-02 -1.4787200093269348e-01 0.0000000000000000e+00  -5.8841999620199203e-02 -1.5107099711894989e-01 0.0000000000000000e+00  -4.4045999646186829e-02 -1.2030299752950668e-01 0.0000000000000000e+00  -4.5706998556852341e-02 -1.2600700557231903e-01 0.0000000000000000e+00  -4.2585000395774841e-02 -1.2013699859380722e-01 0.0000000000000000e+00  -3.9303001016378403e-02 -1.1357499659061432e-01 0.0000000000000000e+00  -2.0805999636650085e-02 -1.0070399940013885e-01 0.0000000000000000e+00  -2.2091999650001526e-02 -8.7728001177310944e-02 0.0000000000000000e+00  -2.3437999188899994e-02 -8.8445998728275299e-02 0.0000000000000000e+00  4.7200000844895840e-03 -3.2089999876916409e-03 0.0000000000000000e+00  5.2889999933540821e-03 -3.7779998965561390e-03 0.0000000000000000e+00  5.8169998228549957e-03 -4.4820001348853111e-03 0.0000000000000000e+00  6.3849999569356441e-03 -5.2399998530745506e-03 0.0000000000000000e+00  2.6940000243484974e-03 -5.3499999921768904e-04 0.0000000000000000e+00  1.0967000387609005e-02 1.8139999592676759e-03 0.0000000000000000e+00  1.3856000266969204e-02 1.7590000061318278e-03 0.0000000000000000e+00  7.7320002019405365e-03 1.2550000101327896e-03 0.0000000000000000e+00  3.5600000992417336e-03 -2.0490000024437904e-03 0.0000000000000000e+00  0.0000000000000000e+00 7.5599999399855733e-04 0.0000000000000000e+00  6.3910000026226044e-03 -2.2660000249743462e-03 0.0000000000000000e+00  0.0000000000000000e+00 7.5599999399855733e-04 0.0000000000000000e+00  0.0000000000000000e+00 7.5599999399855733e-04 0.0000000000000000e+00  1.3648999854922295e-02 7.1100000059232116e-04 0.0000000000000000e+00  1.8172999843955040e-02 -1.1769999982789159e-03 0.0000000000000000e+00  2.0974999293684959e-02 -7.2700000600889325e-04 0.0000000000000000e+00  1.8797000870108604e-02 3.8199999835342169e-04 0.0000000000000000e+00  4.1676998138427734e-02 4.7500000800937414e-04 0.0000000000000000e+00  4.7086000442504883e-02 -1.4220000011846423e-03 0.0000000000000000e+00  4.0812999010086060e-02 -2.3529999889433384e-03 0.0000000000000000e+00  1.8964000046253204e-02 -1.3526000082492828e-02 0.0000000000000000e+00  2.4723000824451447e-02 -9.9849998950958252e-03 0.0000000000000000e+00  2.8168000280857086e-02 -7.4470001272857189e-03 0.0000000000000000e+00  2.8822999447584152e-02 -6.4889998175203800e-03 0.0000000000000000e+00  2.3261999711394310e-02 -1.1079999618232250e-02 0.0000000000000000e+00  2.0207000896334648e-02 -1.3581999577581882e-02 0.0000000000000000e+00  3.1925000250339508e-02 -4.5420001260936260e-03 0.0000000000000000e+00  3.6114998161792755e-02 -1.3889999827370048e-03 0.0000000000000000e+00  3.6104001104831696e-02 -1.5200000489130616e-03 0.0000000000000000e+00  4.1485000401735306e-02 3.9414998143911362e-02 0.0000000000000000e+00  3.6212999373674393e-02 3.0563000589609146e-02 0.0000000000000000e+00  4.3671000748872757e-02 4.2318999767303467e-02 0.0000000000000000e+00  6.1395000666379929e-02 8.9170001447200775e-02 0.0000000000000000e+00  5.9262998402118683e-02 8.1044003367424011e-02 0.0000000000000000e+00  6.6013999283313751e-02 9.9224999547004700e-02 0.0000000000000000e+00  9.2289999127388000e-02 1.7220200598239899e-01 0.0000000000000000e+00  9.6294999122619629e-02 1.8784500658512115e-01 0.0000000000000000e+00  9.3574002385139465e-02 1.8039199709892273e-01 0.0000000000000000e+00  -1.1332999914884567e-02 -3.4752998501062393e-02 0.0000000000000000e+00  7.2792001068592072e-02 1.1377599835395813e-01 0.0000000000000000e+00  7.3425002396106720e-02 1.2626400589942932e-01 0.0000000000000000e+00  7.4409000575542450e-02 1.2279199808835983e-01 0.0000000000000000e+00  7.1866996586322784e-02 1.0919900238513947e-01 0.0000000000000000e+00  7.0317998528480530e-02 1.0401300340890884e-01 0.0000000000000000e+00  6.7771002650260925e-02 9.4559997320175171e-02 0.0000000000000000e+00  7.4662998318672180e-02 1.2353699654340744e-01 0.0000000000000000e+00  7.0735000073909760e-02 1.1147300153970718e-01 0.0000000000000000e+00  7.5649000704288483e-02 1.3007600605487823e-01 0.0000000000000000e+00  7.1634002029895782e-02 1.1768499761819839e-01 0.0000000000000000e+00  6.2229998409748077e-02 8.0314002931118011e-02 0.0000000000000000e+00  6.7475996911525726e-02 9.3405000865459442e-02 0.0000000000000000e+00  7.1014001965522766e-02 1.0643299669027328e-01 0.0000000000000000e+00  7.5089000165462494e-02 1.2211100012063980e-01 0.0000000000000000e+00  7.6866999268531799e-02 1.3704699277877808e-01 0.0000000000000000e+00  7.6191999018192291e-02 1.2817400693893433e-01 0.0000000000000000e+00  6.7493997514247894e-02 9.4843998551368713e-02 0.0000000000000000e+00  -8.2005999982357025e-02 9.1624997556209564e-02 0.0000000000000000e+00  -9.0778999030590057e-02 8.2478001713752747e-02 0.0000000000000000e+00  -8.9481003582477570e-02 9.2519000172615051e-02 0.0000000000000000e+00  -6.2981002032756805e-02 1.2281999737024307e-01 0.0000000000000000e+00  -6.4611002802848816e-02 1.1415199935436249e-01 0.0000000000000000e+00  -7.2906002402305603e-02 1.1036100238561630e-01 0.0000000000000000e+00  -7.1491003036499023e-02 1.0165899991989136e-01 0.0000000000000000e+00  -9.4936996698379517e-02 -9.3781001865863800e-02 0.0000000000000000e+00  -8.6312003433704376e-02 -8.6177997291088104e-02 0.0000000000000000e+00  -8.9474998414516449e-02 -9.0728998184204102e-02 0.0000000000000000e+00  -9.5409996807575226e-02 -9.7934000194072723e-02 0.0000000000000000e+00  -1.1108200252056122e-01 -1.0310299694538116e-01 0.0000000000000000e+00  -1.2968799471855164e-01 -8.2429997622966766e-02 0.0000000000000000e+00  -1.2847700715065002e-01 -8.9722998440265656e-02 0.0000000000000000e+00  -1.3468700647354126e-01 -