<?xml version="1.0"?>
<VTKFile type="UnstructuredGrid"  version="0.1"  >
<UnstructuredGrid>
<Piece  NumberOfPoints="6340" NumberOfCells="12376">
<Points>
<DataArray  type="Float64"  NumberOfComponents="3"  format="ascii">-0.01946100033819675 0.02083900012075901 0  -0.02025300078094006 0.02151699922978878 0  -0.02044999971985817 0.02051999978721142 0  -0.02113199979066849 0.02133199945092201 0  -0.0196749996393919 0.01992099918425083 0  -0.01932400092482567 0.02171400003135204 0  -0.01991900056600571 0.02247600071132183 0  -0.01943599991500378 0.02327900007367134 0  -0.02050299942493439 0.02328299917280674 0  -0.01884900033473969 0.0224360004067421 0  -0.008173000067472458 0.01854700036346912 0  -0.008814999833703041 0.01935799978673458 0  -0.009139999747276306 0.01842099986970425 0  -0.009789000265300274 0.0192709993571043 0  -0.02644499950110912 0.07996699959039688 0  -0.02741000056266785 0.08055700361728668 0  -0.0275689996778965 0.07976999878883362 0  -0.02714899927377701 0.07316099852323532 0  -0.02775100059807301 0.07402700185775757 0  -0.02799299918115139 0.07310999929904938 0  -0.02872000075876713 0.07368999719619751 0  -0.01296900026500225 0.09029799699783325 0  -0.01396000012755394 0.09027300029993057 0  -0.01341299992054701 0.0894320011138916 0  -0.02064700052142143 0.08516000211238861 0  -0.01964100077748299 0.08516599982976913 0  -0.02019399963319302 0.08599299937486649 0  -0.02009600028395653 0.08433099836111069 0  -0.02256900072097778 0.02499699965119362 0  -0.02154899947345257 0.02497499994933605 0  -0.02205800078809261 0.02586299926042557 0  -0.02251799963414669 0.02675300091505051 0  -0.02309799939393997 0.0258990004658699 0  -0.02102899923920631 0.02584500052034855 0  -0.02052300050854683 0.02497000060975552 0  -0.01948600076138973 0.0249669998884201 0  -0.02000500075519085 0.02583399973809719 0  -0.02205299958586693 0.02408700063824654 0  -0.02317400090396404 0.02417699992656708 0  -0.02239000052213669 0.02283000014722347 0  -0.02177900075912476 0.02210200019180775 0  -0.02152800001204014 0.0231929998844862 0  -0.02088899910449982 0.0223619993776083 0  -0.0159670002758503 0.02214699983596802 0  -0.0164790004491806 0.0212629996240139 0  -0.01544999983161688 0.02128900028765202 0  -0.0169259998947382 0.02222100086510181 0  -0.01793199963867664 0.02223699912428856 0  -0.01743699982762337 0.02311399951577187 0  0.04360299929976463 0.08390200138092041 0  0.04326499998569489 0.08298099786043167 0  0.04461200162768364 0.08330900222063065 0  0.04636700078845024 0.0956140011548996 0  0.04718900099396706 0.09602300077676773 0  0.04614099860191345 0.09651400148868561 0  0.02927299961447716 0.104423001408577 0  0.02935599908232689 0.1034779995679855 0  0.03030399978160858 0.1039389967918396 0  0.02832500077784061 0.1048669964075089 0  0.02838099934160709 0.1037210002541542 0  -0.00508200004696846 0.09940700232982635 0  -0.004021999891847372 0.09943199902772903 0  -0.004567999858409166 0.1002930030226707 0  -0.003504999913275242 0.1003139987587929 0  -0.01795700006186962 0.1003860011696815 0  -0.01844000071287155 0.09962800145149231 0  -0.01725899986922741 0.09975899755954742 0  -0.01898599974811077 0.1005769968032837 0  -0.01293400023132563 0.1069860011339188 0  -0.01306799985468388 0.1079370006918907 0  -0.01384500041604042 0.1071320027112961 0  -0.009762000292539597 0.09833300113677979 0  -0.008721999824047089 0.09838300198316574 0  -0.00926900003105402 0.09924200177192688 0  -0.01079799979925156 0.09827499836683273 0  -0.01025000028312206 0.09741699695587158 0  -0.01128599978983402 0.09735900163650513 0  -0.01347899995744228 0.1007369980216026 0  -0.01398499961942434 0.1015599966049194 0  -0.01454699970781803 0.1006660014390945 0  -0.01238800026476383 0.09906599670648575 0  -0.01343000028282404 0.09901399910449982 0  -0.01286699995398521 0.09816599637269974 0  0.01366900000721216 0.09492500126361847 0  0.01471200026571751 0.09492100030183792 0  0.01418999955058098 0.0957769975066185 0  0.007965999655425549 0.07869499921798706 0  0.008453999646008015 0.07782600075006485 0  0.009007999673485756 0.07868999987840652 0  -0.007899999618530273 0.01768999919295311 0  -0.007110000122338533 0.01793099939823151 0  -0.008737999945878983 0.0175429992377758 0  -0.009611999616026878 0.01738899946212769 0  -0.0131400004029274 0.01720000058412552 0  -0.01338499970734119 0.01826000027358532 0  -0.01398899964988232 0.01736100018024445 0  -0.01258299965411425 0.0181060004979372 0  -0.01259899977594614 0.01911799982190132 0  -0.01178700011223555 0.01830700039863586 0  -0.01212800014764071 0.02201900072395802 0  -0.01260800007730722 0.02106199972331524 0  -0.01168899983167648 0.02113400027155876 0  -0.01124699972569942 0.020304000005126 0  -0.0107049997895956 0.02115399949252605 0  -0.01216499973088503 0.02013500034809113 0  -0.01306299958378077 0.02200300060212612 0  -0.01447600033134222 0.02119299955666065 0  -0.01496700011193752 0.02212899923324585 0  -0.01400199998170137 0.02205399982631207 0  -0.009285000152885914 0.02022100053727627 0  -0.01099599990993738 0.03092099912464619 0  -0.01149799954146147 0.03004799969494343 0  -0.01052000001072884 0.03002900071442127 0  -0.005683999974280596 0.02988599985837936 0  -0.006149000022560358 0.03078900091350079 0  -0.006645000074058771 0.02991900034248829 0  -0.008353999815881252 0.02031799964606762 0  -0.005962000228464603 0.01985399983823299 0  -0.006907999981194735 0.01966400071978569 0  -0.006167999934405088 0.01901400089263916 0  -0.006256000138819218 0.01819200068712234 0  -0.005309999920427799 0.01847999915480614 0  0.04809900000691414 0.09160900115966797 0  0.04898500069975853 0.09116300195455551 0  0.04872699826955795 0.09229400008916855 0  0.0476440005004406 0.09239400178194046 0  0.01637299917638302 0.05926600098609924 0  0.01741000078618526 0.05919700115919113 0  0.01693399995565414 0.06007499992847443 0  0.03005599975585938 0.04467900097370148 0  0.03052799962460995 0.04364399984478951 0  0.03101100027561188 0.04438100010156631 0  0.03229000046849251 0.04892199859023094 0  0.03321599960327148 0.04827700182795525 0  0.03359000012278557 0.04903599992394447 0  0.03211800009012222 0.05237999930977821 0  0.03113400004804134 0.05242500081658363 0  0.0316619984805584 0.05150400102138519 0  0.03118900023400784 0.05066800117492676 0  0.03223399817943573 0.05058800056576729 0  0.03064600005745888 0.05157399922609329 0  0.03012700006365776 0.05248299986124039 0  0.03012700006365776 0.05076099932193756 0  0.02955600060522556 0.04997599869966507 0  0.02906399965286255 0.05084399878978729 0  0.0284850001335144 0.050050999969244 0  0.04560099914669991 0.09395500272512436 0  0.04452000185847282 0.09396100044250488 0  0.04505600035190582 0.09311900287866592 0  0.04399500042200089 0.09309399873018265 0  0.007772000040858984 0.02513499930500984 0  0.008559999987483025 0.02559199929237366 0  0.007788000162690878 0.02619200013577938 0  0.00864499993622303 0.02654499933123589 0  0.02800399996340275 0.05091999843716621 0  0.02388699911534786 0.05286600068211555 0  0.02340999990701675 0.05374199897050858 0  0.02283499948680401 0.05292800068855286 0  0.02445800043642521 0.05367999896407127 0  0.03064600005745888 0.05333700031042099 0  0.01910299994051456 0.03602100163698196 0  0.01819800026714802 0.03587799891829491 0  0.01862199977040291 0.03499900177121162 0  0.01350000035017729 0.04117999970912933 0  0.01252700015902519 0.04117999970912933 0  0.0130019998177886 0.04030200093984604 0  0.01202800031751394 0.04030299931764603 0  0.0115520004183054 0.04117900133132935 0  0.01152699999511242 0.03942700102925301 0  0.01250400021672249 0.03942599892616272 0  0.0130249997600913 0.04205799847841263 0  -0.02856099978089333 0.074583999812603 0  -0.02742799930274487 0.07486200332641602 0  -0.02841500006616116 0.07540100067853928 0  -0.02676500007510185 0.07406499981880188 0  -0.02634000033140182 0.07489600032567978 0  -0.02528499998152256 0.07493600249290466 0  -0.02574300020933151 0.07575900107622147 0  -0.02472599968314171 0.0741180032491684 0  -0.02425099909305573 0.07496099919080734 0  -0.02474899962544441 0.07578600198030472 0  -0.02884599938988686 0.07275799661874771 0  -0.0197330005466938 0.0868230015039444 0  -0.02074399963021278 0.08681599795818329 0  -0.01875299960374832 0.09617000073194504 0  -0.01975199952721596 0.09618700295686722 0  -0.0192050002515316 0.09532699733972549 0  -0.02019999921321869 0.09534800052642822 0  -0.01965299993753433 0.09448300302028656 0  -0.01750599965453148 0.09890700131654739 0  -0.01653400063514709 0.09892699867486954 0  -0.01616599969565868 0.09979400038719177 0  -0.01440099999308586 0.08941099792718887 0  -0.01197899971157312 0.08271799981594086 0  -0.01097699999809265 0.08272500336170197 0  -0.01152599975466728 0.08355499804019928 0  -0.01108300033956766 0.0843999981880188 0  -0.01053099986165762 0.08356700092554092 0  -0.01591300033032894 0.08101300150156021 0  -0.01637900061905384 0.08017200231552124 0  -0.01537500042468309 0.08018200099468231 0  -0.01436999998986721 0.0801910012960434 0  -0.01483399979770184 0.07934899628162384 0  -0.01909199915826321 0.08433700352907181 0  -0.01854700036346912 0.08350499719381332 0  -0.01955300010740757 0.08349700272083282 0  -0.02056100033223629 0.0834909975528717 0  -0.02528299950063229 0.07661899924278259 0  -0.0258019994944334 0.07914400100708008 0  -0.02538900077342987 0.07997900247573853 0  -0.02358799986541271 0.02489000000059605 0  -0.02398999966681004 0.02558000013232231 0  -0.02429299987852573 0.0262839999049902 0  -0.02461900003254414 0.02704199962317944 0  -0.02352599985897541 0.02683299966156483 0  -0.01999299973249435 0.02411999925971031 0  -0.01894699968397617 0.02410499937832355 0  -0.02104300074279308 0.02410399913787842 0  -0.02277000062167645 0.02348300069570541 0  -0.01741800084710121 0.01843499951064587 0  -0.01703999936580658 0.01920000091195107 0  -0.01820000074803829 0.01878000050783157 0  -0.01661700010299683 0.01808100007474422 0  -0.01839900016784668 0.02323400042951107 0  -0.0164400003850
[...]
<PointData  Vectors="velocity"> 
<DataArray  type="Float64"  Name="velocity"  NumberOfComponents="3" format="ascii">1.9229999743402004e-03 -1.6799999866634607e-04 0.0000000000000000e+00  1.4609999489039183e-03 -2.5000001187436283e-04 0.0000000000000000e+00  7.5599999399855733e-04 -2.2670000325888395e-03 0.0000000000000000e+00  1.5519999433308840e-03 -2.5319999549537897e-03 0.0000000000000000e+00  -2.4999999368446879e-05 -2.2670000325888395e-03 0.0000000000000000e+00  2.9070000164210796e-03 -2.4999999368446879e-05 0.0000000000000000e+00  2.5569999124854803e-03 -1.1400000221328810e-04 0.0000000000000000e+00  3.6150000523775816e-03 -1.6799999866634607e-04 0.0000000000000000e+00  2.1420000120997429e-03 -2.5700000696815550e-04 0.0000000000000000e+00  4.1849999688565731e-03 2.4999999368446879e-05 0.0000000000000000e+00  7.7720000408589840e-03 -2.3050000891089439e-03 0.0000000000000000e+00  1.3886000029742718e-02 3.8899999344721437e-04 0.0000000000000000e+00  1.0436000302433968e-02 -1.0470000561326742e-03 0.0000000000000000e+00  1.3803999871015549e-02 6.1599997570738196e-04 0.0000000000000000e+00  -1.3821999542415142e-02 -2.5286000221967697e-02 0.0000000000000000e+00  8.0880001187324524e-03 -2.4443000555038452e-02 0.0000000000000000e+00  8.5580004379153252e-03 -2.4677999317646027e-02 0.0000000000000000e+00  -1.6052000224590302e-02 -5.1284998655319214e-02 0.0000000000000000e+00  -1.4689999632537365e-02 -4.0796998888254166e-02 0.0000000000000000e+00  -1.3222999870777130e-02 -4.0972001850605011e-02 0.0000000000000000e+00  1.0576999746263027e-02 -2.4932000786066055e-02 0.0000000000000000e+00  -1.3714399933815002e-01 -8.2759000360965729e-02 0.0000000000000000e+00  -1.1887100338935852e-01 -6.6200003027915955e-02 0.0000000000000000e+00  -1.3367499411106110e-01 -9.1215997934341431e-02 0.0000000000000000e+00  -4.5278999954462051e-02 -4.8641998320817947e-02 0.0000000000000000e+00  -5.6175000965595245e-02 -6.1241999268531799e-02 0.0000000000000000e+00  -4.7734998166561127e-02 -4.4578000903129578e-02 0.0000000000000000e+00  -5.2531998604536057e-02 -6.4565002918243408e-02 0.0000000000000000e+00  4.5900000259280205e-04 -6.5599998924881220e-04 0.0000000000000000e+00  1.1170000070706010e-03 -7.5599999399855733e-04 0.0000000000000000e+00  4.4400000479072332e-04 -1.1249999515712261e-03 0.0000000000000000e+00  -2.0700000459328294e-04 -1.4880000380799174e-03 0.0000000000000000e+00  7.5999996624886990e-05 -8.4900000365450978e-04 0.0000000000000000e+00  1.2150000547990203e-03 -1.3160000089555979e-03 0.0000000000000000e+00  2.1399999968707561e-03 -8.2100002327933908e-04 0.0000000000000000e+00  3.4940000623464584e-03 -8.8299997150897980e-04 0.0000000000000000e+00  2.4009998887777328e-03 -1.4390000142157078e-03 0.0000000000000000e+00  8.2900002598762512e-04 -4.3899999582208693e-04 0.0000000000000000e+00  3.7620000075548887e-03 -4.1319997981190681e-03 0.0000000000000000e+00  3.0219999607652426e-03 -3.0219999607652426e-03 0.0000000000000000e+00  2.3080001119524240e-03 -2.7840000111609697e-03 0.0000000000000000e+00  1.0620000539347529e-03 -3.2900000223889947e-04 0.0000000000000000e+00  1.3060000492259860e-03 -2.6900001103058457e-04 0.0000000000000000e+00  9.8369996994733810e-03 8.2999997539445758e-04 0.0000000000000000e+00  8.0840000882744789e-03 7.1900000330060720e-04 0.0000000000000000e+00  1.0285999625921249e-02 1.0420000180602074e-03 0.0000000000000000e+00  7.7590001747012138e-03 4.3300000834278762e-04 0.0000000000000000e+00  5.7319998741149902e-03 1.9099999917671084e-04 0.0000000000000000e+00  7.0629999972879887e-03 7.7999997301958501e-05 0.0000000000000000e+00  7.1800001896917820e-03 2.0276999101042747e-02 0.0000000000000000e+00  8.3379996940493584e-03 2.2485999390482903e-02 0.0000000000000000e+00  2.1872999146580696e-02 -1.4833999797701836e-02 0.0000000000000000e+00  1.0923000052571297e-02 1.8650000914931297e-02 0.0000000000000000e+00  9.7740003839135170e-03 1.7640000209212303e-02 0.0000000000000000e+00  1.0201999917626381e-02 1.9960999488830566e-02 0.0000000000000000e+00  -5.6733999401330948e-02 -7.7360002323985100e-03 0.0000000000000000e+00  -5.0172999501228333e-02 -3.3209999091923237e-03 0.0000000000000000e+00  -4.9509000033140182e-02 7.9299998469650745e-04 0.0000000000000000e+00  -6.2183998525142670e-02 -1.6009999439120293e-02 0.0000000000000000e+00  -5.5938001722097397e-02 -1.0831000283360481e-02 0.0000000000000000e+00  -4.9123000353574753e-02 -6.7091003060340881e-02 0.0000000000000000e+00  -6.4317002892494202e-02 -8.5285000503063202e-02 0.0000000000000000e+00  -2.8650999069213867e-02 -6.3078999519348145e-02 0.0000000000000000e+00  -4.3223001062870026e-02 -7.9958997666835785e-02 0.0000000000000000e+00  5.7675000280141830e-02 7.5134001672267914e-02 0.0000000000000000e+00  5.4503999650478363e-02 7.4564002454280853e-02 0.0000000000000000e+00  5.4563000798225403e-02 7.5975000858306885e-02 0.0000000000000000e+00  -1.4883000403642654e-02 -2.4932000786066055e-02 0.0000000000000000e+00  5.1130000501871109e-02 5.3870998322963715e-02 0.0000000000000000e+00  -2.1959999576210976e-02 -2.2615000605583191e-02 0.0000000000000000e+00  -2.1152999252080917e-02 -2.3422000929713249e-02 0.0000000000000000e+00  -1.7149999737739563e-02 3.8179999683052301e-03 0.0000000000000000e+00  -2.9281999915838242e-02 -1.3499000109732151e-02 0.0000000000000000e+00  3.6510000936686993e-03 7.3919999413192272e-03 0.0000000000000000e+00  -5.6770001538097858e-03 2.0936999469995499e-02 0.0000000000000000e+00  -3.4051999449729919e-02 -1.3200000103097409e-04 0.0000000000000000e+00  -2.1121999248862267e-02 1.6995999962091446e-02 0.0000000000000000e+00  5.6520000100135803e-02 6.8827003240585327e-02 0.0000000000000000e+00  6.2913998961448669e-02 7.2924003005027771e-02 0.0000000000000000e+00  5.7675000280141830e-02 7.3390997946262360e-02 0.0000000000000000e+00  3.0332999303936958e-02 5.0073001533746719e-02 0.0000000000000000e+00  3.7092000246047974e-02 6.1248000711202621e-02 0.0000000000000000e+00  1.3469999656081200e-02 4.7336000949144363e-02 0.0000000000000000e+00  -2.6952600479125977e-01 -5.5187001824378967e-02 0.0000000000000000e+00  -2.5801599025726318e-01 -4.0963999927043915e-02 0.0000000000000000e+00  -2.5497299432754517e-01 -5.5086001753807068e-02 0.0000000000000000e+00  -6.8742997944355011e-02 -5.7071998715400696e-02 0.0000000000000000e+00  -5.4579999297857285e-02 -4.0874000638723373e-02 0.0000000000000000e+00  -6.3300997018814087e-02 -3.5323999822139740e-02 0.0000000000000000e+00  -1.0576999746263027e-02 -1.2087999843060970e-02 0.0000000000000000e+00  -1.1037999764084816e-02 -1.3240999542176723e-02 0.0000000000000000e+00  -1.0094000026583672e-02 -1.0879999957978725e-02 0.0000000000000000e+00  -9.5899999141693115e-03 -9.6199996769428253e-03 0.0000000000000000e+00  -6.8000000901520252e-03 -6.0439999215304852e-03 0.0000000000000000e+00  7.9749999567866325e-03 -6.9399998756125569e-04 0.0000000000000000e+00  -6.0569997876882553e-03 -5.3019998595118523e-03 0.0000000000000000e+00  9.1439997777342796e-03 -4.9100001342594624e-04 0.0000000000000000e+00  1.0509000159800053e-02 -1.6599999798927456e-04 0.0000000000000000e+00  1.0529999621212482e-02 -2.2299999545793980e-04 0.0000000000000000e+00  1.7340000718832016e-02 2.4109999649226665e-03 0.0000000000000000e+00  1.4232000336050987e-02 1.3989999424666166e-03 0.0000000000000000e+00  1.5746999531984329e-02 1.7579999985173345e-03 0.0000000000000000e+00  1.4453999698162079e-02 1.1780000058934093e-03 0.0000000000000000e+00  1.7216999083757401e-02 2.0320001058280468e-03 0.0000000000000000e+00  1.2946000322699547e-02 7.5000000651925802e-04 0.0000000000000000e+00  1.5667999163269997e-02 2.1110000088810921e-03 0.0000000000000000e+00  1.1764000169932842e-02 1.1149999918416142e-03 0.0000000000000000e+00  1.2129000388085842e-02 1.3899999903514981e-03 0.0000000000000000e+00  1.4158000238239765e-02 1.8860000418499112e-03 0.0000000000000000e+00  1.6734000295400620e-02 1.6159999649971724e-03 0.0000000000000000e+00  4.0950000286102295e-02 -1.1320999823510647e-02 0.0000000000000000e+00  3.6419998854398727e-02 -9.7270002588629723e-03 0.0000000000000000e+00  4.1117999702692032e-02 -5.8800000697374344e-03 0.0000000000000000e+00  5.8690998703241348e-02 1.7099000513553619e-02 0.0000000000000000e+00  6.1276998370885849e-02 1.3983000069856644e-02 0.0000000000000000e+00  5.6212998926639557e-02 1.2872000224888325e-02 0.0000000000000000e+00  1.7579000443220139e-02 1.8129999516531825e-03 0.0000000000000000e+00  7.4660000391304493e-03 -1.4220000011846423e-03 0.0000000000000000e+00  9.9929999560117722e-03 -8.4799999604001641e-04 0.0000000000000000e+00  -1.3239999534562230e-03 -4.7200000844895840e-03 0.0000000000000000e+00  -1.1536000296473503e-02 -1.4485999941825867e-02 0.0000000000000000e+00  -1.2087999843060970e-02 -1.5866000205278397e-02 0.0000000000000000e+00  7.6569998636841774e-03 1.0840999893844128e-02 0.0000000000000000e+00  6.6650002263486385e-03 8.8820001110434532e-03 0.0000000000000000e+00  7.7650002203881741e-03 1.0920999571681023e-02 0.0000000000000000e+00  8.5990000516176224e-03 1.2667999602854252e-02 0.0000000000000000e+00  1.0538800060749054e-01 1.1179299652576447e-01 0.0000000000000000e+00  1.0384599864482880e-01 1.1832699924707413e-01 0.0000000000000000e+00  1.0230600088834763e-01 1.1702899634838104e-01 0.0000000000000000e+00  2.6722999289631844e-02 3.5523001104593277e-02 0.0000000000000000e+00  -1.9365999847650528e-02 -2.0953999832272530e-02 0.0000000000000000e+00  -1.9120000302791595e-02 -2.1445000544190407e-02 0.0000000000000000e+00  2.7550999075174332e-02 5.0092998892068863e-02 0.0000000000000000e+00  -1.5828000381588936e-02 -2.2664999589323997e-02 0.0000000000000000e+00  -1.5116999857127666e-02 -2.2664999589323997e-02 0.0000000000000000e+00  3.8476999849081039e-02 7.8828997910022736e-02 0.0000000000000000e+00  4.5699000358581543e-02 8.7573997676372528e-02 0.0000000000000000e+00  3.9358001202344894e-02 7.6011002063751221e-02 0.0000000000000000e+00  4.0552999824285507e-02 7.3441997170448303e-02 0.0000000000000000e+00  3.2200999557971954e-02 6.4223997294902802e-02 0.0000000000000000e+00  4.7045998275279999e-02 8.5084997117519379e-02 0.0000000000000000e+00  5.3040999919176102e-02 9.5572002232074738e-02 0.0000000000000000e+00  4.9924001097679138e-02 8.2198999822139740e-02 0.0000000000000000e+00  5.3420998156070709e-02 7.9590000212192535e-02 0.0000000000000000e+00  5.8770999312400818e-02 8.9998997747898102e-02 0.0000000000000000e+00  6.2297999858856201e-02 8.7347999215126038e-02 0.0000000000000000e+00  1.1087000370025635e-02 1.8549999222159386e-02 0.0000000000000000e+00  1.1779000051319599e-02 2.1076999604701996e-02 0.0000000000000000e+00  1.1040999554097652e-02 1.8859000876545906e-02 0.0000000000000000e+00  1.1467999778687954e-02 2.1773999556899071e-02 0.0000000000000000e+00  -1.9122000783681870e-02 -2.0685000345110893e-02 0.0000000000000000e+00  -1.9373999908566475e-02 -2.0181000232696533e-02 0.0000000000000000e+00  6.4280000515282154e-03 2.8909998945891857e-03 0.0000000000000000e+00  6.8950001150369644e-03 3.0259999912232161e-03 0.0000000000000000e+00  6.7087002098560333e-02 9.6395000815391541e-02 0.0000000000000000e+00  9.1742999851703644e-02 1.1719100177288055e-01 0.0000000000000000e+00  9.2658996582031250e-02 1.2077599763870239e-01 0.0000000000000000e+00  9.6414998173713684e-02 1.1633700132369995e-01 0.0000000000000000e+00  8.7778002023696899e-02 1.2139400094747543e-01 0.0000000000000000e+00  5.1043998450040817e-02 9.8049998283386230e-02 0.0000000000000000e+00  4.3807998299598694e-02 2.4452000856399536e-02 0.0000000000000000e+00  4.7993998974561691e-02 2.6481000706553459e-02 0.0000000000000000e+00  3.6988001316785812e-02 1.9713999703526497e-02 0.0000000000000000e+00  1.1549700051546097e-01 5.5907998234033585e-02 0.0000000000000000e+00  1.1900699883699417e-01 5.5121999233961105e-02 0.0000000000000000e+00  1.1305999755859375e-01 5.2705001085996628e-02 0.0000000000000000e+00  1.1670300364494324e-01 5.2308000624179840e-02 0.0000000000000000e+00  1.2233900278806686e-01 5.4471001029014587e-02 0.0000000000000000e+00  1.1333700269460678e-01 4.9658000469207764e-02 0.0000000000000000e+00  1.0981799662113190e-01 4.9596000462770462e-02 0.0000000000000000e+00  1.2125399708747864e-01 5.7861000299453735e-02 0.0000000000000000e+00  1.0320999659597874e-02 -2.4932000786066055e-02 0.0000000000000000e+00  -1.6518000513315201e-02 -4.1182998567819595e-02 0.0000000000000000e+00  1.0088000446557999e-02 -2.4932000786066055e-02 0.0000000000000000e+00  -1.8281999975442886e-02 -5.2246000617742538e-02 0.0000000000000000e+00  -2.1265000104904175e-02 -5.4382000118494034e-02 0.0000000000000000e+00  -2.6552999392151833e-02 -6.8582996726036072e-02 0.0000000000000000e+00  -2.4073999375104904e-02 -5.7627998292446136e-02 0.0000000000000000e+00  -2.8065999969840050e-02 -8.1010997295379639e-02 0.0000000000000000e+00  -3.2251000404357910e-02 -8.3959996700286865e-02 0.0000000000000000e+00  -3.0523000285029411e-02 -7.1662001311779022e-02 0.0000000000000000e+00  1.0840999893844128e-02 -2.4932000786066055e-02 0.0000000000000000e+00  -5.0207998603582382e-02 -4.0453001856803894e-02 0.0000000000000000e+00  -3.7524998188018799e-02 -2.9249999672174454e-02 0.0000000000000000e+00  2.9430000111460686e-02 6.1558999121189117e-02 0.0000000000000000e+00  3.5025000572204590e-02 6.1241000890731812e-02 0.0000000000000000e+00  1.9199000671505928e-02 5.4758999496698380e-02 0.0000000000000000e+00  2.7857000008225441e-02 5.5206000804901123e-02 0.0000000000000000e+00  1.2082000263035297e-02 4.8360001295804977e-02 0.0000000000000000e+00  5.1194000989198685e-02 7.4849002063274384e-02 0.0000000000000000e+00  4.9545001238584518e-02 7.4900001287460327e-02 0.0000000000000000e+00  5.4044999182224274e-02 7.6901003718376160e-02 0.0000000000000000e+00  -1.1628399789333344e-01 -7.4234999716281891e-02 0.0000000000000000e+00  -1.4524100720882416e-01 -2.0994800329208374e-01 0.0000000000000000e+00  -1.5399900078773499e-01 -2.2249099612236023e-01 0.0000000000000000e+00  -1.5499299764633179e-01 -2.0843599736690521e-01 0.0000000000000000e+00  -1.6506500542163849e-01 -2.0580899715423584e-01 0.0000000000000000e+00  -1.6390100121498108e-01 -2.2076599299907684e-01 0.0000000000000000e+00  -1.0607200115919113e-01 -1.6911500692367554e-01 0.0000000000000000e+00  -9.9956996738910675e-02 -1.6963000595569611e-01 0.0000000000000000e+00  -1.0864199697971344e-01 -1.8496300280094147e-01 0.0000000000000000e+00  -1.1690200120210648e-01 -1.9940899312496185e-01 0.0000000000000000e+00  -1.0942099988460541e-01 -1.9939200580120087e-01 0.0000000000000000e+00  -6.3899002969264984e-02 -7.9023003578186035e-02 0.0000000000000000e+00  -7.5240001082420349e-02 -9.8165996372699738e-02 0.0000000000000000e+00  -6.3674002885818481e-02 -8.2318000495433807e-02 0.0000000000000000e+00  -5.1787998527288437e-02 -6.7786000669002533e-02 0.0000000000000000e+00  -2.4578999727964401e-02 -5.8045998215675354e-02 0.0000000000000000e+00  -1.7669999971985817e-02 -3.6127001047134399e-02 0.0000000000000000e+00  -1.9371999427676201e-02 -3.5884998738765717e-02 0.0000000000000000e+00  4.1539999656379223e-03 -4.7200000844895840e-03 0.0000000000000000e+00  4.5329998247325420e-03 -5.2889999933540821e-03 0.0000000000000000e+00  4.8850001767277718e-03 -5.9930002316832542e-03 0.0000000000000000e+00  5.2640000358223915e-03 -6.7509999498724937e-03 0.0000000000000000e+00  -3.5700001171790063e-04 -1.1170000070706010e-03 0.0000000000000000e+00  2.9259999282658100e-03 -4.4900001375935972e-04 0.0000000000000000e+00  4.4729998335242271e-03 -4.3899999582208693e-04 0.0000000000000000e+00  1.6759999562054873e-03 -4.5500000123865902e-04 0.0000000000000000e+00  3.3809999004006386e-03 -3.5600000992417336e-03 0.0000000000000000e+00  -2.4669999256730080e-03 -2.7449999470263720e-03 0.0000000000000000e+00  3.6700000055134296e-03 -1.2399999832268804e-04 0.0000000000000000e+00  -1.5109999803826213e-03 -2.2670000325888395e-03 0.0000000000000000e+00  -3.4479999449104071e-03 -3.2349999528378248e-03 0.0000000000000000e+00  5.3039998747408390e-03 -9.3000002379994839e-05 0.0000000000000000e+00  9.1140000149607658e-03 3.9999998989515007e-04 0.0000000000000000e+00  1.0383999906480312e-02 2.5400001322850585e-04 0.0000000000000000e+00  8.1820003688335419e-03 -1.2599999899975955e-04 0.0000000000000000e+00  3.5778000950813293e-02 -1.5220999717712402e-02 0.0000000000000000e+00  4.0213000029325485e-02 -1.7704999074339867e-02 0.0000000000000000e+00  3.4878000617027283e-02 -2.1377999335527420e-02 0.0000000000000000e+00  1.8978999927639961e-02 2.6380000635981560e-03 0.0000000000000000e+00  2.7258999645709991e-02 4.3130000121891499e-03 0.0000000000000000e+00  3.1410999596118927e-02 5.1359999924898148e-03 0.0000000000000000e+00  2.8264999389648438e-02 3.6800000816583633e-03 0.0000000000000000e+00  2.9402999207377434e-02 5.3099999204277992e-03 0.0000000000000000e+00  2.4793999269604683e-02 3.9750002324581146e-03 0.0000000000000000e+00  3.5238999873399734e-02 6.1320001259446144e-03 0.0000000000000000e+00  3.9035998284816742e-02 7.3919999413192272e-03 0.0000000000000000e+00  3.5987999290227890e-02 4.4359997846186161e-03 0.0000000000000000e+00  8.8569996878504753e-03 1.2779000215232372e-02 0.0000000000000000e+00  8.0049997195601463e-03 1.1927999556064606e-02 0.0000000000000000e+00  8.6719999089837074e-03 1.3616000302135944e-02 0.0000000000000000e+00  8.1919999793171883e-03 1.8877999857068062e-02 0.0000000000000000e+00  9.2139998450875282e-03 1.7417000606656075e-02 0.0000000000000000e+00  9.2829996719956398e-03 2.0917000249028206e-02 0.0000000000000000e+00  -7.2949999012053013e-03 5.8506000787019730e-02 0.0000000000000000e+00  -1.2535000219941139e-02 6.8034999072551727e-02 0.0000000000000000e+00  -9.2919999733567238e-03 6.6303998231887817e-02 0.0000000000000000e+00  2.1153999492526054e-02 -1.4355000108480453e-02 0.0000000000000000e+00  9.9499998614192009e-03 2.4810999631881714e-02 0.0000000000000000e+00  9.2049995437264442e-03 2.7089999988675117e-02 0.0000000000000000e+00  1.1668000370264053e-02 2.5962000712752342e-02 0.0000000000000000e+00  1.1766999959945679e-02 2.3485999554395676e-02 0.0000000000000000e+00  1.0076999664306641e-02 2.3184999823570251e-02 0.0000000000000000e+00  1.0169999673962593e-02 2.1601000800728798e-02 0.0000000000000000e+00  1.1335000395774841e-02 2.5444999337196350e-02 0.0000000000000000e+00  1.0336999781429768e-02 2.3174999281764030e-02 0.0000000000000000e+00  9.6770003437995911e-03 2.7567999437451363e-02 0.0000000000000000e+00  8.7059997022151947e-03 2.5296000763773918e-02 0.0000000000000000e+00  1.1305999942123890e-02 1.8474999815225601e-02 0.0000000000000000e+00  1.1682000011205673e-02 2.0759999752044678e-02 0.0000000000000000e+00  1.2237000279128551e-02 2.2677000612020493e-02 0.0000000000000000e+00  1.2594000436365604e-02 2.5322999805212021e-02 0.0000000000000000e+00  1.2523000128567219e-02 2.8156999498605728e-02 0.0000000000000000e+00  1.2569000013172626e-02 2.6210999116301537e-02 0.0000000000000000e+00  1.1858000420033932e-02 2.0550999790430069e-02 0.0000000000000000e+00  -7.1011997759342194e-02 -3.3663000911474228e-02 0.0000000000000000e+00  -7.3554001748561859e-02 -4.2034000158309937e-02 0.0000000000000000e+00  -7.5466997921466827e-02 -3.8747999817132950e-02 0.0000000000000000e+00  -6.1834998428821564e-02 -1.6396999359130859e-02 0.0000000000000000e+00  -6.1928998678922653e-02 -1.8821999430656433e-02 0.0000000000000000e+00  -6.5257996320724487e-02 -2.4856999516487122e-02 0.0000000000000000e+00  -6.7217998206615448e-02 -2.4865999817848206e-02 0.0000000000000000e+00  -2.0916000008583069e-02 -2.9448000714182854e-02 0.0000000000000000e+00  9.0100001543760300e-03 -8.4929997101426125e-03 0.0000000000000000e+00  -8.1679997965693474e-03 -1.0603000409901142e-02 0.0000000000000000e+00  -4.3088998645544052e-02 -3.3185001462697983e-02 0.0000000000000000e+00  -8.7741002440452576e-02 -9.0663999319076538e-02 0.0000000000000000e+00  -1.1008500307798386e-01 -1.3399000465869904e-01 0.0000000000000000e+00  -1.3231700658798218e-01 -1.4216800034046173e-01 0.0000000000000000e+00  -1.4933000504970551e-01 -1.4851599931