<?xml version="1.0"?>
<VTKFile type="UnstructuredGrid"  version="0.1"  >
<UnstructuredGrid>
<Piece  NumberOfPoints="6340" NumberOfCells="12376">
<Points>
<DataArray  type="Float64"  NumberOfComponents="3"  format="ascii">-0.01954000070691109 0.02072099968791008 0  -0.02032399922609329 0.0214220006018877 0  -0.02053000032901764 0.02041999995708466 0  -0.02117699943482876 0.02124599926173687 0  -0.01975500024855137 0.01979699917137623 0  -0.01940199919044971 0.02160299941897392 0  -0.01998499967157841 0.02238300070166588 0  -0.01950499974191189 0.02318700030446053 0  -0.02053800038993359 0.02320300042629242 0  -0.01892600022256374 0.02232199907302856 0  -0.007832000032067299 0.01814199984073639 0  -0.008520999923348427 0.01897599920630455 0  -0.008848000317811966 0.01803600043058395 0  -0.009545999579131603 0.01890899986028671 0  -0.02610599994659424 0.07825600355863571 0  -0.02704199962317944 0.07878699898719788 0  -0.02722799964249134 0.07800000160932541 0  -0.02668200060725212 0.07165800034999847 0  -0.02731500007212162 0.07245299965143204 0  -0.02751499973237514 0.07156399637460709 0  -0.0282600000500679 0.07208000123500824 0  -0.01215299963951111 0.08878300338983536 0  -0.01304899994283915 0.08875799924135208 0  -0.01251799985766411 0.08800400048494339 0  -0.01984000019729137 0.08374500274658203 0  -0.01882500015199184 0.08380000293254852 0  -0.0192830003798008 0.08457999676465988 0  -0.01938500069081783 0.08295899629592896 0  -0.02246999926865101 0.0249210000038147 0  -0.02151600085198879 0.02491400018334389 0  -0.02196400053799152 0.02579000033438206 0  -0.02236600033938885 0.02666799910366535 0  -0.02293599955737591 0.02580999955534935 0  -0.02100200019776821 0.02578599937260151 0  -0.02053000032901764 0.02490299940109253 0  -0.01952799968421459 0.02488699927926064 0  -0.02001599967479706 0.02576600015163422 0  -0.02201499976217747 0.0240240003913641 0  -0.02305999957025051 0.02409699931740761 0  -0.02236999943852425 0.02277000062167645 0  -0.02178999967873096 0.02202999964356422 0  -0.02153100073337555 0.02312500029802322 0  -0.02092600055038929 0.0222800001502037 0  -0.01601600088179111 0.02195899933576584 0  -0.01653500087559223 0.02107799984514713 0  -0.01547599956393242 0.0210730005055666 0  -0.01700099930167198 0.02206199988722801 0  -0.01800799928605556 0.02209999971091747 0  -0.01751199923455715 0.02297700010240078 0  0.03921499848365784 0.08154600113630295 0  0.03902700170874596 0.08067400008440018 0  0.0402120016515255 0.08091899752616882 0  0.04075200110673904 0.09235700219869614 0  0.04145999997854233 0.09269899874925613 0  0.04044599831104279 0.09320899844169617 0  0.02413100004196167 0.1014159992337227 0  0.02431200072169304 0.1005290001630783 0  0.02512899972498417 0.1009140014648438 0  0.02321499958634377 0.1018769964575768 0  0.02339199930429459 0.1008030027151108 0  -0.007056000176817179 0.09660500288009644 0  -0.006163000129163265 0.09671899676322937 0  -0.006754999980330467 0.09745699912309647 0  -0.00585100008174777 0.09757799655199051 0  -0.01753300055861473 0.09768100082874298 0  -0.01785299926996231 0.09702499955892563 0  -0.01686199940741062 0.09712400287389755 0  -0.01843399927020073 0.09786099940538406 0  -0.01461399998515844 0.1031830012798309 0  -0.0148910004645586 0.1040059998631477 0  -0.01535100024193525 0.1033250018954277 0  -0.01057100016623735 0.09566099941730499 0  -0.00976600032299757 0.09567900002002716 0  -0.01034899987280369 0.09643100202083588 0  -0.01137600000947714 0.09565100073814392 0  -0.01079300045967102 0.09490100294351578 0  -0.01159899961203337 0.09489099681377411 0  -0.01392399985343218 0.09784699976444244 0  -0.01446700002998114 0.09856700152158737 0  -0.014767000451684 0.09782399982213974 0  -0.01276899967342615 0.09638399630784988 0  -0.01360000018030405 0.0963750034570694 0  -0.01300899963825941 0.09563100337982178 0  0.01089099980890751 0.0932919979095459 0  0.01184600032866001 0.09323800355195999 0  0.01127300038933754 0.09406399726867676 0  0.007455000188201666 0.07839799672365189 0  0.00796900037676096 0.07756900042295456 0  0.008409000001847744 0.07834299653768539 0  -0.007530000060796738 0.01727000065147877 0  -0.006705999840050936 0.01750200055539608 0  -0.008409000001847744 0.01713900081813335 0  -0.009327000007033348 0.01700199954211712 0  -0.01303000003099442 0.01688000001013279 0  -0.01329900044947863 0.01795700006186962 0  -0.01391499955207109 0.01706000044941902 0  -0.01245999988168478 0.01778499968349934 0  -0.0124930003657937 0.01880900003015995 0  -0.01162800006568432 0.01797300018370152 0  -0.0120430001989007 0.02173300087451935 0  -0.01252899970859289 0.02077499963343143 0  -0.01157100033015013 0.02082899957895279 0  -0.01109400019049644 0.01998200081288815 0  -0.01053899992257357 0.02082999981939793 0  -0.01205500029027462 0.01982899941504002 0  -0.01301500014960766 0.02173699997365475 0  -0.01447299961000681 0.02094700001180172 0  -0.01498799957334995 0.02191100083291531 0  -0.01399200037121773 0.02180800028145313 0  -0.009031999856233597 0.01985899917781353 0  -0.0109850000590086 0.03071399964392185 0  -0.01149599999189377 0.02984200045466423 0  -0.01047900039702654 0.02980099990963936 0  -0.005406000185757875 0.02955899946391582 0  -0.005911000072956085 0.03048199974000454 0  -0.006417999975383282 0.02961299940943718 0  -0.008053000085055828 0.01993799954652786 0  -0.005535000003874302 0.01942799985408783 0  -0.006523000076413155 0.01924999989569187 0  -0.005737000145018101 0.01858199946582317 0  -0.005816000048071146 0.01775299943983555 0  -0.00482999999076128 0.01803000085055828 0  0.0427360013127327 0.08855599910020828 0  0.0435510016977787 0.08812499791383743 0  0.04326299950480461 0.08914999663829803 0  0.04227599874138832 0.08928599953651428 0  0.01638899929821491 0.05914799869060516 0  0.01741700060665607 0.05907300114631653 0  0.01693899929523468 0.05995700135827065 0  0.0300149992108345 0.0444439984858036 0  0.0304969996213913 0.04340400174260139 0  0.03094499930739403 0.04414099827408791 0  0.03198599815368652 0.04864899814128876 0  0.03288599848747253 0.04798899963498116 0  0.03318699821829796 0.0487230010330677 0  0.03161200135946274 0.05203299969434738 0  0.03070200048387051 0.05211799964308739 0  0.03124799951910973 0.05119900032877922 0  0.03085899911820889 0.0503930002450943 0  0.03183399885892868 0.05028500035405159 0  0.03029900044202805 0.05129700154066086 0  0.02976199984550476 0.05220400169491768 0  0.02986600063741207 0.05051499977707863 0  0.02936399914324284 0.04974700137972832 0  0.02886299975216389 0.05061899870634079 0  0.02834100089967251 0.0498340018093586 0  0.04023300111293793 0.09084299951791763 0  0.03924300149083138 0.09090200066566467 0  0.03982599824666977 0.09008900076150894 0  0.03885800018906593 0.09011600166559219 0  0.008351000025868416 0.02483800053596497 0  0.009115000255405903 0.02530799992382526 0  0.008352000266313553 0.02590199932456017 0  0.009185999631881714 0.0262679997831583 0  0.02785000018775463 0.05070700123906136 0  0.02384299971163273 0.05268900096416473 0  0.02335900068283081 0.05356999859213829 0  0.02282500080764294 0.05275600031018257 0  0.02436899952590466 0.05350099876523018 0  0.0301900003105402 0.05302000045776367 0  0.01926299929618835 0.03586100041866302 0  0.01837800070643425 0.03571600094437599 0  0.01880300045013428 0.03483400121331215 0  0.01371399965137243 0.0410269983112812 0  0.01276700012385845 0.04102500155568123 0  0.01324099954217672 0.04014400020241737 0  0.01229299977421761 0.04014400020241737 0  0.01181900035589933 0.04102300107479095 0  0.0118180001154542 0.03925900161266327 0  0.01276700012385845 0.0392640009522438 0  0.01324099954217672 0.04190799966454506 0  -0.02814199961721897 0.07293999940156937 0  -0.02703199908137321 0.07326500117778778 0  -0.02803299948573112 0.07372599840164185 0  -0.02634100057184696 0.0725409984588623 0  -0.02595599927008152 0.07335600256919861 0  -0.02491299994289875 0.0734499990940094 0  -0.02540300041437149 0.07421000301837921 0  -0.02432399988174438 0.07270000129938126 0  -0.02388999983668327 0.07352899760007858 0  -0.02441900037229061 0.07428900152444839 0  -0.02834399975836277 0.07118300348520279 0  -0.01872799918055534 0.08540699630975723 0  -0.01973799988627434 0.08535700291395187 0  -0.01776799932122231 0.09399300068616867 0  -0.01866200007498264 0.09400799870491028 0  -0.01810799911618233 0.09324599802494049 0  -0.01899899914860725 0.09326499700546265 0  -0.01845799945294857 0.09249299764633179 0  -0.01696900092065334 0.09638399630784988 0  -0.01614199951291084 0.09638900309801102 0  -0.01595900021493435 0.09712699800729752 0  -0.01343800034373999 0.08797100186347961 0  -0.01139899995177984 0.08178400248289108 0  -0.01038900017738342 0.08184000104665756 0  -0.01085299998521805 0.08261600136756897 0  -0.01034200005233288 0.08343800157308578 0  -0.009863999672234058 0.08266600221395493 0  -0.01555399969220161 0.07987800240516663 0  -0.0160910002887249 0.07901100069284439 0  -0.01508599985390902 0.07907699793577194 0  -0.01408100035041571 0.07914300262928009 0  -0.01460199989378452 0.07827799767255783 0  -0.01837100088596344 0.08301699906587601 0  -0.01792299933731556 0.08222000300884247 0  -0.01893799938261509 0.08215600252151489 0  -0.01995399966835976 0.08209399878978729 0  -0.02497700043022633 0.07505699992179871 0  -0.02549800090491772 0.07747700065374374 0  -0.02505699917674065 0.07832600176334381 0  -0.02342600002884865 0.02480000071227551 0  -0.02377999946475029 0.02548000030219555 0  -0.02402500063180923 0.02615099959075451 0  -0.0242880005389452 0.0268740002065897 0  -0.02330099977552891 0.02672399953007698 0  -0.02003199979662895 0.02404000051319599 0  -0.0190190002322197 0.0240119993686676 0  -0.02104699984192848 0.02403699979186058 0  -0.02270499989390373 0.0234140008687973 0  -0.01747299917042255 0.01823700033128262 0  -0.01709200069308281 0.01900099962949753 0  -0.01827999949455261 0.01861000061035156 0  -0.01664499938488007 0.01785399951040745 0  -0.01847399957478046 0.02311999909579754 0  -0.0165
[...]
<PointData  Vectors="velocity"> 
<DataArray  type="Float64"  Name="velocity"  NumberOfComponents="3" format="ascii">5.9499999042600393e-04 5.7199998991563916e-04 0.0000000000000000e+00  4.3799998820759356e-04 4.3899999582208693e-04 0.0000000000000000e+00  -1.5109999803826213e-03 7.5599999399855733e-04 0.0000000000000000e+00  -1.7760000191628933e-03 1.0209999745711684e-03 0.0000000000000000e+00  -1.5109999803826213e-03 7.5599999399855733e-04 0.0000000000000000e+00  1.1830000439658761e-03 1.0989999864250422e-03 0.0000000000000000e+00  1.0669999755918980e-03 1.0270000202581286e-03 0.0000000000000000e+00  1.6489999834448099e-03 1.5630000270903111e-03 0.0000000000000000e+00  9.1100001009181142e-04 9.4900000840425491e-04 0.0000000000000000e+00  1.9189999438822269e-03 1.7199999419972301e-03 0.0000000000000000e+00  3.7340000271797180e-03 5.1139998249709606e-03 0.0000000000000000e+00  8.1650000065565109e-03 7.9370001330971718e-03 0.0000000000000000e+00  4.7340001910924911e-03 5.7500000111758709e-03 0.0000000000000000e+00  7.8320000320672989e-03 7.7849999070167542e-03 0.0000000000000000e+00  -9.5800001872703433e-04 1.2814999558031559e-02 0.0000000000000000e+00  7.3330001905560493e-03 1.4887999743223190e-02 0.0000000000000000e+00  7.8030000440776348e-03 1.5358000062406063e-02 0.0000000000000000e+00  -3.2200000714510679e-04 9.2850001528859138e-03 0.0000000000000000e+00  -9.6199999097734690e-04 1.3217999599874020e-02 0.0000000000000000e+00  -4.0700001409277320e-04 1.4454999938607216e-02 0.0000000000000000e+00  9.0659996494650841e-03 1.6620999202132225e-02 0.0000000000000000e+00  -4.0180999785661697e-02 -3.4154001623392105e-02 0.0000000000000000e+00  -3.5670001059770584e-02 -2.8039000928401947e-02 0.0000000000000000e+00  -4.2713999748229980e-02 -3.5650998353958130e-02 0.0000000000000000e+00  -1.9589999690651894e-02 -1.0354000143706799e-02 0.0000000000000000e+00  -2.5073999539017677e-02 -1.7286000773310661e-02 0.0000000000000000e+00  -2.1310999989509583e-02 -9.9740000441670418e-03 0.0000000000000000e+00  -2.2750999778509140e-02 -1.7594000324606895e-02 0.0000000000000000e+00  1.4999999621068127e-05 3.6000000545755029e-04 0.0000000000000000e+00  3.5300001036375761e-04 7.4699998367577791e-04 0.0000000000000000e+00  -1.6599999798927456e-04 5.7099998230114579e-04 0.0000000000000000e+00  -6.3700001919642091e-04 5.4500001715496182e-04 0.0000000000000000e+00  -2.2899999748915434e-04 3.6100001307204366e-04 0.0000000000000000e+00  1.3699999544769526e-04 9.4400002853944898e-04 0.0000000000000000e+00  8.1300002057105303e-04 1.1909999884665012e-03 0.0000000000000000e+00  1.4499999815598130e-03 1.7099999822676182e-03 0.0000000000000000e+00  6.7899998975917697e-04 1.4220000011846423e-03 0.0000000000000000e+00  3.0099999275989830e-04 4.6499999007210135e-04 0.0000000000000000e+00  -2.6360000483691692e-03 1.8810000037774444e-03 0.0000000000000000e+00  -2.2670000325888395e-03 1.5109999803826213e-03 0.0000000000000000e+00  -2.0290000829845667e-03 1.2730000307783484e-03 0.0000000000000000e+00  3.8700000732205808e-04 4.6000001020729542e-04 0.0000000000000000e+00  4.4800000614486635e-04 4.7200001426972449e-04 0.0000000000000000e+00  5.2789999172091484e-03 4.2130001820623875e-03 0.0000000000000000e+00  4.1919997893273830e-03 3.3929999917745590e-03 0.0000000000000000e+00  5.7870000600814819e-03 4.5830002054572105e-03 0.0000000000000000e+00  3.9420002140104771e-03 3.2230000942945480e-03 0.0000000000000000e+00  2.7530000079423189e-03 2.3509999737143517e-03 0.0000000000000000e+00  3.5369999241083860e-03 2.9609999619424343e-03 0.0000000000000000e+00  3.0938999727368355e-02 7.4546001851558685e-02 0.0000000000000000e+00  2.8610000386834145e-02 7.5159996747970581e-02 0.0000000000000000e+00  3.3482000231742859e-02 2.9464999213814735e-02 0.0000000000000000e+00  1.1994999833405018e-02 6.3832998275756836e-02 0.0000000000000000e+00  1.0308000259101391e-02 6.0345999896526337e-02 0.0000000000000000e+00  4.5369998551905155e-03 6.1415001749992371e-02 0.0000000000000000e+00  -1.5241500735282898e-01 -3.3849000930786133e-02 0.0000000000000000e+00  -1.3873299956321716e-01 -3.1819000840187073e-02 0.0000000000000000e+00  -1.4474800229072571e-01 -2.6410000398755074e-02 0.0000000000000000e+00  -1.5788500010967255e-01 -3.9804000407457352e-02 0.0000000000000000e+00  -1.4220599830150604e-01 -3.8369998335838318e-02 0.0000000000000000e+00  -2.3417999967932701e-02 -5.0048001110553741e-02 0.0000000000000000e+00  -2.6933999732136726e-02 -5.8072000741958618e-02 0.0000000000000000e+00  -2.4739999324083328e-02 -4.9460001289844513e-02 0.0000000000000000e+00  -2.8376000002026558e-02 -5.7417999953031540e-02 0.0000000000000000e+00  9.5600001513957977e-03 2.1112000569701195e-02 0.0000000000000000e+00  9.8999999463558197e-03 2.1611999720335007e-02 0.0000000000000000e+00  7.9960003495216370e-03 1.8548000603914261e-02 0.0000000000000000e+00  1.7148999497294426e-02 3.1257998198270798e-02 0.0000000000000000e+00  8.2759996876120567e-03 1.7131999135017395e-02 0.0000000000000000e+00  2.2664999589323997e-02 3.8295999169349670e-02 0.0000000000000000e+00  2.2664999589323997e-02 3.8026999682188034e-02 0.0000000000000000e+00  -1.1314000003039837e-02 -2.0881999284029007e-02 0.0000000000000000e+00  -1.3798000290989876e-02 -2.8039999306201935e-02 0.0000000000000000e+00  -1.1977000162005424e-02 -2.0571999251842499e-02 0.0000000000000000e+00  -8.9090000838041306e-03 -1.4538000337779522e-02 0.0000000000000000e+00  -1.1489000171422958e-02 -2.1214000880718231e-02 0.0000000000000000e+00  -9.0420003980398178e-03 -1.5076999552547932e-02 0.0000000000000000e+00  1.8169999821111560e-03 7.6850000768899918e-03 0.0000000000000000e+00  3.8439999334514141e-03 1.1370000429451466e-02 0.0000000000000000e+00  3.9289998821914196e-03 1.1543000116944313e-02 0.0000000000000000e+00  -4.6489997766911983e-03 -2.4729999713599682e-03 0.0000000000000000e+00  -2.3000000510364771e-03 2.6759998872876167e-03 0.0000000000000000e+00  -4.2730001732707024e-03 -2.4480000138282776e-03 0.0000000000000000e+00  -5.7045999914407730e-02 -8.5530996322631836e-02 0.0000000000000000e+00  -5.5780999362468719e-02 -7.9281002283096313e-02 0.0000000000000000e+00  -6.0745999217033386e-02 -8.7999001145362854e-02 0.0000000000000000e+00  -5.0654001533985138e-02 -7.6529998332262039e-03 0.0000000000000000e+00  -3.6185998469591141e-02 -8.6999998893588781e-04 0.0000000000000000e+00  -4.6558998525142670e-02 1.0140000376850367e-03 0.0000000000000000e+00  -2.2670000325888395e-03 -7.5599999399855733e-04 0.0000000000000000e+00  -2.2670000325888395e-03 -7.5599999399855733e-04 0.0000000000000000e+00  -2.2670000325888395e-03 -7.5599999399855733e-04 0.0000000000000000e+00  -2.2670000325888395e-03 -7.5599999399855733e-04 0.0000000000000000e+00  -2.2670000325888395e-03 -7.5599999399855733e-04 0.0000000000000000e+00  2.9949999880045652e-03 2.3610000498592854e-03 0.0000000000000000e+00  -2.0190000068396330e-03 -2.6000000070780516e-04 0.0000000000000000e+00  3.3629999961704016e-03 2.7610000688582659e-03 0.0000000000000000e+00  5.2249999716877937e-03 4.4419998303055763e-03 0.0000000000000000e+00  4.3750000186264515e-03 3.8930000737309456e-03 0.0000000000000000e+00  1.0038999840617180e-02 9.4929998740553856e-03 0.0000000000000000e+00  8.6239995434880257e-03 7.5880000367760658e-03 0.0000000000000000e+00  9.2460000887513161e-03 8.7719997391104698e-03 0.0000000000000000e+00  7.9039996489882469e-03 7.7659999951720238e-03 0.0000000000000000e+00  9.2639997601509094e-03 9.6310004591941833e-03 0.0000000000000000e+00  7.2159999981522560e-03 6.5199998207390308e-03 0.0000000000000000e+00  9.3090003356337547e-03 8.1669995561242104e-03 0.0000000000000000e+00  6.9710002280771732e-03 5.5559999309480190e-03 0.0000000000000000e+00  6.9109997712075710e-03 5.5280001834034920e-03 0.0000000000000000e+00  8.3090001717209816e-03 6.8819997832179070e-03 0.0000000000000000e+00  9.1000003740191460e-03 9.1220000758767128e-03 0.0000000000000000e+00  2.5520001072436571e-03 1.1297999881207943e-02 0.0000000000000000e+00  4.5600000885315239e-04 1.3616000302135944e-02 0.0000000000000000e+00  3.5319998860359192e-03 1.2934000231325626e-02 0.0000000000000000e+00  2.3848999291658401e-02 3.2279998995363712e-03 0.0000000000000000e+00  2.5018999353051186e-02 8.3500001346692443e-04 0.0000000000000000e+00  1.9607000052928925e-02 3.9260000921785831e-03 0.0000000000000000e+00  9.4330003485083580e-03 8.6230002343654633e-03 0.0000000000000000e+00  9.8400004208087921e-03 4.4539999216794968e-03 0.0000000000000000e+00  8.7909996509552002e-03 5.7020001113414764e-03 0.0000000000000000e+00  4.2190002277493477e-03 2.7709999121725559e-03 0.0000000000000000e+00  -2.2670000325888395e-03 -7.5599999399855733e-04 0.0000000000000000e+00  -2.2670000325888395e-03 -7.5599999399855733e-04 0.0000000000000000e+00  2.6186000555753708e-02 6.2403999269008636e-02 0.0000000000000000e+00  2.4582000449299812e-02 5.7601999491453171e-02 0.0000000000000000e+00  2.4306999519467354e-02 5.9452999383211136e-02 0.0000000000000000e+00  2.5898000225424767e-02 6.4557000994682312e-02 0.0000000000000000e+00  5.1674999296665192e-02 3.8757000118494034e-02 0.0000000000000000e+00  4.9336001276969910e-02 4.8728998750448227e-02 0.0000000000000000e+00  5.1745001226663589e-02 4.5921001583337784e-02 0.0000000000000000e+00  2.1962000057101250e-02 2.9324999079108238e-02 0.0000000000000000e+00  4.5329998247325420e-03 1.0099000297486782e-02 0.0000000000000000e+00  4.5329998247325420e-03 1.0344999842345715e-02 0.0000000000000000e+00  1.9538000226020813e-02 4.2038999497890472e-02 0.0000000000000000e+00  3.0219999607652426e-03 1.1861000210046768e-02 0.0000000000000000e+00  3.0219999607652426e-03 1.2334999628365040e-02 0.0000000000000000e+00  2.1214999258518219e-02 6.4884997904300690e-02 0.0000000000000000e+00  2.4849999696016312e-02 7.1636997163295746e-02 0.0000000000000000e+00  2.3257000371813774e-02 6.2490999698638916e-02 0.0000000000000000e+00  2.5411000475287437e-02 6.0164000838994980e-02 0.0000000000000000e+00  2.0873999223113060e-02 5.2921000868082047e-02 0.0000000000000000e+00  2.7505999431014061e-02 6.9254003465175629e-02 0.0000000000000000e+00  2.8881000354886055e-02 7.7722996473312378e-02 0.0000000000000000e+00  3.0241999775171280e-02 6.7014999687671661e-02 0.0000000000000000e+00  3.3282998949289322e-02 6.4948998391628265e-02 0.0000000000000000e+00  3.5277999937534332e-02 7.2747997939586639e-02 0.0000000000000000e+00  3.8752000778913498e-02 7.0343002676963806e-02 0.0000000000000000e+00  2.1880999207496643e-02 7.0312000811100006e-02 0.0000000000000000e+00  2.1753000095486641e-02 7.2866000235080719e-02 0.0000000000000000e+00  2.6195999234914780e-02 7.3402002453804016e-02 0.0000000000000000e+00  2.6815000921487808e-02 7.5966998934745789e-02 0.0000000000000000e+00  -3.0219999607652426e-03 2.7350001037120819e-03 0.0000000000000000e+00  -3.0219999607652426e-03 3.2399999909102917e-03 0.0000000000000000e+00  1.2756999582052231e-02 7.3139998130500317e-03 0.0000000000000000e+00  1.3942000456154346e-02 8.0509996041655540e-03 0.0000000000000000e+00  4.0245000272989273e-02 7.6913997530937195e-02 0.0000000000000000e+00  5.1344998180866241e-02 8.4738001227378845e-02 0.0000000000000000e+00  4.9566999077796936e-02 8.5101999342441559e-02 0.0000000000000000e+00  5.3789000958204269e-02 8.0096997320652008e-02 0.0000000000000000e+00  4.6819001436233521e-02 8.9294999837875366e-02 0.0000000000000000e+00  2.5970000773668289e-02 7.9986996948719025e-02 0.0000000000000000e+00  3.8150999695062637e-02 2.5110000744462013e-02 0.0000000000000000e+00  4.0927000343799591e-02 2.5693999603390694e-02 0.0000000000000000e+00  3.4232001751661301e-02 2.1627999842166901e-02 0.0000000000000000e+00  7.1578003466129303e-02 2.9423000290989876e-02 0.0000000000000000e+00  7.1676000952720642e-02 2.7083000168204308e-02 0.0000000000000000e+00  7.0487000048160553e-02 2.8697999194264412e-02 0.0000000000000000e+00  7.0710003376007080e-02 2.6957999914884567e-02 0.0000000000000000e+00  7.1557000279426575e-02 2.5259999558329582e-02 0.0000000000000000e+00  6.9014996290206909e-02 2.6877000927925110e-02 0.0000000000000000e+00  6.8631000816822052e-02 2.8099000453948975e-02 0.0000000000000000e+00  7.2400003671646118e-02 2.7211999520659447e-02 0.0000000000000000e+00  9.0659996494650841e-03 1.6364999115467072e-02 0.0000000000000000e+00  -1.2949999654665589e-03 1.1946000158786774e-02 0.0000000000000000e+00  9.0659996494650841e-03 1.6132000833749771e-02 0.0000000000000000e+00  -5.7400000514462590e-04 7.7129998244345188e-03 0.0000000000000000e+00  -1.0979999788105488e-03 5.5040000006556511e-03 0.0000000000000000e+00  -1.6149999573826790e-03 -2.3070001043379307e-03 0.0000000000000000e+00  -1.9349999492987990e-03 2.1790000610053539e-03 0.0000000000000000e+00  -1.3599999947473407e-03 -7.9929996281862259e-03 0.0000000000000000e+00  -2.6229999493807554e-03 -1.1327999643981457e-02 0.0000000000000000e+00  -2.8659999370574951e-03 -5.4649999365210533e-03 0.0000000000000000e+00  8.8020004332065582e-03 1.6884999349713326e-02 0.0000000000000000e+00  -2.1921999752521515e-02 -9.2770000919699669e-03 0.0000000000000000e+00  -1.5824999660253525e-02 -2.9720000457018614e-03 0.0000000000000000e+00  6.2669999897480011e-03 1.7286000773310661e-02 0.0000000000000000e+00  8.2740001380443573e-03 1.9964000210165977e-02 0.0000000000000000e+00  4.0870001539587975e-03 1.6646999865770340e-02 0.0000000000000000e+00  6.9639999419450760e-03 1.9695000723004341e-02 0.0000000000000000e+00  3.5620001144707203e-03 1.6287999227643013e-02 0.0000000000000000e+00  6.7699998617172241e-03 1.7883000895380974e-02 0.0000000000000000e+00  4.5500001870095730e-03 1.4937000349164009e-02 0.0000000000000000e+00  6.0930000618100166e-03 1.5631999820470810e-02 0.0000000000000000e+00  -3.7902001291513443e-02 -2.9338000342249870e-02 0.0000000000000000e+00  -8.0558001995086670e-02 -8.3816997706890106e-02 0.0000000000000000e+00  -8.6883999407291412e-02 -8.7382003664970398e-02 0.0000000000000000e+00  -8.4131002426147461e-02 -8.0710999667644501e-02 0.0000000000000000e+00  -8.5997998714447021e-02 -7.7719002962112427e-02 0.0000000000000000e+00  -9.0374998748302460e-02 -8.4389001131057739e-02 0.0000000000000000e+00  -4.9033999443054199e-02 -7.0286996662616730e-02 0.0000000000000000e+00  -4.4195000082254410e-02 -7.1598999202251434e-02 0.0000000000000000e+00  -5.0622001290321350e-02 -7.9519003629684448e-02 0.0000000000000000e+00  -5.7050999253988266e-02 -8.6388997733592987e-02 0.0000000000000000e+00  -5.0057999789714813e-02 -8.8155999779701233e-02 0.0000000000000000e+00  -2.8728999197483063e-02 -2.5224000215530396e-02 0.0000000000000000e+00  -3.4871000796556473e-02 -3.4336999058723450e-02 0.0000000000000000e+00  -2.8031999245285988e-02 -2.6130000129342079e-02 0.0000000000000000e+00  -2.1671000868082047e-02 -1.8153000622987747e-02 0.0000000000000000e+00  -2.6249999646097422e-03 3.5499999648891389e-04 0.0000000000000000e+00  -2.0069999154657125e-03 7.8969998285174370e-03 0.0000000000000000e+00  -3.1449999660253525e-03 6.4619998447597027e-03 0.0000000000000000e+00  -2.8319999109953642e-03 2.0769999828189611e-03 0.0000000000000000e+00  -3.0219999607652426e-03 2.2670000325888395e-03 0.0000000000000000e+00  -3.0219999607652426e-03 2.4429999757558107e-03 0.0000000000000000e+00  -3.0219999607652426e-03 2.6320000179111958e-03 0.0000000000000000e+00  -5.3299998398870230e-04 4.2799999937415123e-04 0.0000000000000000e+00  1.2929999502375722e-03 1.3869999675080180e-03 0.0000000000000000e+00  2.0659998990595341e-03 1.9880000036209822e-03 0.0000000000000000e+00  6.9199997233226895e-04 8.5800001397728920e-04 0.0000000000000000e+00  -2.4459999985992908e-03 1.6909999540075660e-03 0.0000000000000000e+00  -1.5109999803826213e-03 7.5599999399855733e-04 0.0000000000000000e+00  1.5689999563619494e-03 1.3800000306218863e-03 0.0000000000000000e+00  -1.5109999803826213e-03 7.5599999399855733e-04 0.0000000000000000e+00  -1.5109999803826213e-03 7.5599999399855733e-04 0.0000000000000000e+00  2.5450000539422035e-03 2.2440000902861357e-03 0.0000000000000000e+00  4.7709997743368149e-03 3.8759999442845583e-03 0.0000000000000000e+00  5.3170002065598965e-03 4.5289997942745686e-03 0.0000000000000000e+00  4.1279997676610947e-03 3.4980000928044319e-03 0.0000000000000000e+00  -8.5900002159178257e-04 1.1696999892592430e-02 0.0000000000000000e+00  1.4909999445080757e-03 8.7430002167820930e-03 0.0000000000000000e+00  -2.0369999110698700e-03 9.1580003499984741e-03 0.0000000000000000e+00  1.0421000421047211e-02 1.0699000209569931e-02 0.0000000000000000e+00  1.0575000196695328e-02 1.3776999898254871e-02 0.0000000000000000e+00  9.5380004495382309e-03 1.4472999610006809e-02 0.0000000000000000e+00  9.3780001625418663e-03 1.4406000263988972e-02 0.0000000000000000e+00  1.0266000404953957e-02 1.3240000233054161e-02 0.0000000000000000e+00  1.0598000138998032e-02 1.2590999715030193e-02 0.0000000000000000e+00  8.3569996058940887e-03 1.4321999624371529e-02 0.0000000000000000e+00  7.8990003094077110e-03 1.3368999585509300e-02 0.0000000000000000e+00  6.6559999249875546e-03 1.5065999701619148e-02 0.0000000000000000e+00  2.0821999758481979e-02 5.7695999741554260e-02 0.0000000000000000e+00  1.8171999603509903e-02 5.1805000752210617e-02 0.0000000000000000e+00  1.6859000548720360e-02 5.5066000670194626e-02 0.0000000000000000e+00  3.4129999577999115e-02 7.8566998243331909e-02 0.0000000000000000e+00  3.1851001083850861e-02 7.5701996684074402e-02 0.0000000000000000e+00  3.3032000064849854e-02 7.8813999891281128e-02 0.0000000000000000e+00  4.5012000948190689e-02 9.5105998218059540e-02 0.0000000000000000e+00  4.5093998312950134e-02 9.6979998052120209e-02 0.0000000000000000e+00  4.4341001659631729e-02 9.8163999617099762e-02 0.0000000000000000e+00  3.3241998404264450e-02 2.9464999213814735e-02 0.0000000000000000e+00  -8.6390003561973572e-03 6.1067998409271240e-02 0.0000000000000000e+00  -1.6342999413609505e-02 5.9675000607967377e-02 0.0000000000000000e+00  -4.0759998373687267e-03 6.3978001475334167e-02 0.0000000000000000e+00  3.2520000822842121e-03 6.5665997564792633e-02 0.0000000000000000e+00  -3.5900000948458910e-03 6.1914000660181046e-02 0.0000000000000000e+00  6.7999999737367034e-04 6.2006000429391861e-02 0.0000000000000000e+00  2.7577999979257584e-02 7.8410997986793518e-02 0.0000000000000000e+00  3.0880000442266464e-02 7.8822001814842224e-02 0.0000000000000000e+00  3.1805001199245453e-02 8.1170000135898590e-02 0.0000000000000000e+00  3.4083001315593719e-02 8.1542998552322388e-02 0.0000000000000000e+00  1.6875000670552254e-02 6.6946998238563538e-02 0.0000000000000000e+00  9.4860000535845757e-03 6.5814003348350525e-02 0.0000000000000000e+00  1.1095999740064144e-02 6.9013997912406921e-02 0.0000000000000000e+00  7.1890000253915787e-03 6.8618997931480408e-02 0.0000000000000000e+00  7.7639999799430370e-03 6.9825001060962677e-02 0.0000000000000000e+00  1.5008999966084957e-02 7.2475999593734741e-02 0.0000000000000000e+00  1.6511999070644379e-02 6.9499000906944275e-02 0.0000000000000000e+00  -1.6661599278450012e-01 -5.0477001816034317e-02 0.0000000000000000e+00  -1.6912899911403656e-01 -5.4501999169588089e-02 0.0000000000000000e+00  -1.5863700211048126e-01 -5.6471001356840134e-02 0.0000000000000000e+00  -1.3874299824237823e-01 -4.4867999851703644e-02 0.0000000000000000e+00  -1.5114100277423859e-01 -4.3591998517513275e-02 0.0000000000000000e+00  -1.5001299977302551e-01 -4.9081999808549881e-02 0.0000000000000000e+00  -1.6329999268054962e-01 -4.5779000967741013e-02 0.0000000000000000e+00  -1.7338000237941742e-02 -3.4501001238822937e-02 0.0000000000000000e+00  -1.4956000261008739e-02 -2.6827000081539154e-02 0.0000000000000000e+00  -1.4595000073313713e-02 -2.7538999915122986e-02 0.0000000000000000e+00  -1.6378000378608704e-02 -3.5147000104188919e-02 0.0000000000000000e+00  -2.4958999827504158e-02 -5.8423999696969986e-02 0.0000000000000000e+00  -4.8317998647689819e-02 -9.0402998030185699e-02 0.0000000000000000e+00  -4.5685000717639923e-02 -9.1250002384185791e-02 0.0000000000000000e+00  -5.1539998501539230e-02 -9.8177000880241394e-02 0.0000000000000000e+00  -2.4342000484466553e-02 -4.83