<?xml version="1.0"?>
<VTKFile type="UnstructuredGrid"  version="0.1"  >
<UnstructuredGrid>
<Piece  NumberOfPoints="6340" NumberOfCells="12376">
<Points>
<DataArray  type="Float64"  NumberOfComponents="3"  format="ascii">-0.01934999972581863 0.02067000046372414 0  -0.02001399919390678 0.02132200077176094 0  -0.02023999951779842 0.02033999934792519 0  -0.02078500017523766 0.02107400074601173 0  -0.01958199962973595 0.01975099928677082 0  -0.01918799988925457 0.02154500037431717 0  -0.01967200078070164 0.02227699942886829 0  -0.019208999350667 0.02309300005435944 0  -0.02013299986720085 0.0230139996856451 0  -0.01873300038278103 0.02227099984884262 0  -0.008785000070929527 0.0175429992377758 0  -0.009405000135302544 0.01846200041472912 0  -0.009738000109791756 0.01752300001680851 0  -0.01036300044506788 0.01848199963569641 0  -0.0256120003759861 0.07565999776124954 0  -0.02655900083482265 0.07610300183296204 0  -0.026698999106884 0.075314000248909 0  -0.02609400078654289 0.06902900338172913 0  -0.02670099958777428 0.06977400183677673 0  -0.02690999954938889 0.06886500120162964 0  -0.02762999944388866 0.06932000070810318 0  -0.01316099986433983 0.08737599849700928 0  -0.01409300044178963 0.08724399656057358 0  -0.01350300014019012 0.08652500063180923 0  -0.02009399980306625 0.08156000077724457 0  -0.01912499964237213 0.08170299977064133 0  -0.01969200000166893 0.08243300020694733 0  -0.01953100040555 0.08082599937915802 0  -0.02181600034236908 0.02444799989461899 0  -0.02094200067222118 0.02456199936568737 0  -0.02132599987089634 0.0253320001065731 0  -0.02166800014674664 0.02611000090837479 0  -0.02221599966287613 0.02522799931466579 0  -0.0204440001398325 0.02545000053942204 0  -0.02005599997937679 0.02464799955487251 0  -0.01915900036692619 0.02472499944269657 0  -0.01955999992787838 0.02552499994635582 0  -0.02142699994146824 0.0236590001732111 0  -0.02238300070166588 0.02359499968588352 0  -0.02178999967873096 0.02243000082671642 0  -0.0213019996881485 0.0217719990760088 0  -0.02102399989962578 0.02284800074994564 0  -0.02051799930632114 0.02209199965000153 0  -0.01616499945521355 0.02196200005710125 0  -0.01666600070893764 0.02108299918472767 0  -0.01572000049054623 0.0210609994828701 0  -0.01704199984669685 0.02207900024950504 0  -0.01793099939823151 0.02208299934864044 0  -0.01745199970901012 0.0229640007019043 0  0.04289700090885162 0.08125700056552887 0  0.04252000153064728 0.08039499819278717 0  0.04384699836373329 0.08062899857759476 0  0.04591099917888641 0.09219799935817719 0  0.04672100022435188 0.09253600239753723 0  0.04561600089073181 0.09302300214767456 0  0.02782299928367138 0.1008730009198189 0  0.02797600068151951 0.1000119969248772 0  0.02891100011765957 0.1003929972648621 0  0.02682299911975861 0.1013140007853508 0  0.0269629992544651 0.100271001458168 0  -0.006533999927341938 0.0964210033416748 0  -0.005537000019103289 0.09654700011014938 0  -0.006128000095486641 0.09727499634027481 0  -0.005125999916344881 0.09740000218153 0  -0.01873599924147129 0.09612999856472015 0  -0.01912800036370754 0.09538199752569199 0  -0.01802299916744232 0.09562700241804123 0  -0.01972500048577785 0.09619700163602829 0  -0.01458700001239777 0.1025850027799606 0  -0.01479899976402521 0.1034329980611801 0  -0.01545100007206202 0.1026350036263466 0  -0.01082499977201223 0.09503699839115143 0  -0.009855999611318111 0.09517499804496765 0  -0.01044700015336275 0.09590400010347366 0  -0.01178899966180325 0.09489099681377411 0  -0.01119900029152632 0.09416399896144867 0  -0.01216300018131733 0.09401900321245193 0  -0.01452500000596046 0.0968799963593483 0  -0.0150739997625351 0.09757900238037109 0  -0.01552500016987324 0.09671600162982941 0  -0.01335099991410971 0.09546499699354172 0  -0.01432999968528748 0.09532000124454498 0  -0.01372599974274635 0.09460200369358063 0  0.01257099956274033 0.09287799894809723 0  0.01363600045442581 0.09283299744129181 0  0.0130409998819232 0.09363000094890594 0  0.007911999709904194 0.07837899774312973 0  0.008395000360906124 0.07753799855709076 0  0.008976000361144543 0.07833299785852432 0  -0.008530000224709511 0.01662000082433224 0  -0.00774300005286932 0.01677599921822548 0  -0.009355000220239162 0.01656199991703033 0  -0.010215999558568 0.01650200039148331 0  -0.01365999970585108 0.01668000034987926 0  -0.01386599987745285 0.01779500022530556 0  -0.01445899996906519 0.01691599935293198 0  -0.0131029998883605 0.01756300032138824 0  -0.0131010003387928 0.01861600019037724 0  -0.01232500001788139 0.01768999919295311 0  -0.01258500013500452 0.02157399989664555 0  -0.01306299958378077 0.02062500081956387 0  -0.01218200009316206 0.02061700075864792 0  -0.01176599971950054 0.01970900036394596 0  -0.01122500002384186 0.02053599990904331 0  -0.01266300026327372 0.01962899975478649 0  -0.0134699996560812 0.02163399942219257 0  -0.01482800021767616 0.02091499976813793 0  -0.01524899993091822 0.0218959990888834 0  -0.01435799989849329 0.02176499925553799 0  -0.009855000302195549 0.01941400021314621 0  -0.01129600033164024 0.03067499957978725 0  -0.01179399993270636 0.02981499955058098 0  -0.0108679998666048 0.02971399948000908 0  -0.006178999785333872 0.02907099947333336 0  -0.006622999906539917 0.03006399981677532 0  -0.007122000213712454 0.0292150005698204 0  -0.008937999606132507 0.01940900087356567 0  -0.006579999811947346 0.01864299923181534 0  -0.007521999999880791 0.01855899952352047 0  -0.006794999819248915 0.01779099926352501 0  -0.006891999859362841 0.01694400049746037 0  -0.005950000137090683 0.01713000051677227 0  0.04785500094294548 0.08844699710607529 0  0.04867300018668175 0.08795700222253799 0  0.04851900041103363 0.0890749990940094 0  0.04744699969887733 0.08922500163316727 0  0.01574699953198433 0.05830100178718567 0  0.0167820006608963 0.05815400183200836 0  0.01633699983358383 0.05907100066542625 0  0.02891200035810471 0.04264099895954132 0  0.02934700064361095 0.04156700149178505 0  0.02985700033605099 0.04227200150489807 0  0.03127099946141243 0.04677100107073784 0  0.03217000141739845 0.04605999961495399 0  0.03255600109696388 0.0468129999935627 0  0.03117099963128567 0.05031700059771538 0  0.03021200001239777 0.05040900036692619 0  0.03071199916303158 0.04944000020623207 0  0.03022499941289425 0.04861399903893471 0  0.03125400096178055 0.04847300052642822 0  0.02971000038087368 0.04956899955868721 0  0.0292189996689558 0.05052600055932999 0  0.02917899936437607 0.0487699992954731 0  0.0285899993032217 0.04801100119948387 0  0.02812900021672249 0.04891899973154068 0  0.02752700075507164 0.04815899953246117 0  0.04524800181388855 0.09072300046682358 0  0.04414299875497818 0.09077200293540955 0  0.04475099965929985 0.08998599648475647 0  0.04366999864578247 0.09000500291585922 0  0.006810999941080809 0.02297100052237511 0  0.007565999869257212 0.02343500033020973 0  0.006841999944299459 0.02407100051641464 0  0.007660999894142151 0.02442499995231628 0  0.02707500010728836 0.04906899854540825 0  0.02303400076925755 0.05131800100207329 0  0.02258799970149994 0.05223299935460091 0  0.02198399975895882 0.05145800113677979 0  0.02363199926912785 0.05209600180387497 0  0.02974599972367287 0.05137199908494949 0  0.01784300059080124 0.03437300026416779 0  0.0169610008597374 0.0342239998281002 0  0.01735500060021877 0.03330999985337257 0  0.01251900009810925 0.03972499817609787 0  0.01158600021153688 0.03971299901604652 0  0.01202700007706881 0.03880300000309944 0  0.01109299995005131 0.03879199922084808 0  0.01065200008451939 0.03970099985599518 0  0.01059999968856573 0.03787000104784966 0  0.01153500005602837 0.03788299858570099 0  0.01207899954169989 0.04063599929213524 0  -0.02750499919056892 0.07019300013780594 0  -0.02641499973833561 0.07061299681663513 0  -0.0273899994790554 0.07099200040102005 0  -0.02574600093066692 0.06994500011205673 0  -0.02535999938845634 0.07079499959945679 0  -0.024337999522686 0.07097700238227844 0  -0.02480999939143658 0.07169900089502335 0  -0.02376900054514408 0.07027400285005569 0  -0.02333600074052811 0.07114300131797791 0  -0.023845000192523 0.07186099886894226 0  -0.0277280006557703 0.06841199845075607 0  -0.01929000020027161 0.08329900354146957 0  -0.02025699988007545 0.08316099643707275 0  -0.01912900060415268 0.09216699749231339 0  -0.02007300034165382 0.09207200258970261 0  -0.01948300004005432 0.09133800119161606 0  -0.02042300067842007 0.09124699980020523 0  -0.01983099989593029 0.09050700068473816 0  -0.01818500086665154 0.09481800347566605 0  -0.01726699993014336 0.09493900090456009 0  -0.01698900014162064 0.09576699882745743 0  -0.01443199999630451 0.08639299869537354 0  -0.01163600012660027 0.08035700023174286 0  -0.01067099999636412 0.08049999922513962 0  -0.01124299969524145 0.08122800290584564 0  -0.01087599992752075 0.08208999782800674 0  -0.0102939996868372 0.08136499673128128 0  -0.01540299970656633 0.07814300060272217 0  -0.01584099978208542 0.07724899798631668 0  -0.01486499980092049 0.07739900052547455 0  -0.01388899981975555 0.07754799723625183 0  -0.01432500034570694 0.07665500044822693 0  -0.01855999976396561 0.08096999675035477 0  -0.01800999976694584 0.08022899925708771 0  -0.01898599974811077 0.0800819993019104 0  -0.01996400021016598 0.07993700355291367 0  -0.02439199946820736 0.07258400321006775 0  -0.02497299946844578 0.07494500279426575 0  -0.02458599954843521 0.07581800222396851 0  -0.02269599959254265 0.02421299926936626 0  -0.02300000004470348 0.02480999939143658 0  -0.02321900054812431 0.02540200017392635 0  -0.02345499955117702 0.0260390006005764 0  -0.02252800017595291 0.02604199945926666 0  -0.01964499987661839 0.0238649994134903 0  -0.01874000020325184 0.02393100038170815 0  -0.02055400051176548 0.02376900054514408 0  -0.02207699976861477 0.02299500070512295 0  -0.01762400008738041 0.01824099943041801 0  -0.01725099980831146 0.01900400035083294 0  -0.01833000034093857 0.01862999983131886 0  -0.01689999923110008 0.01784100010991096 0  -0.01829800009727478 0.02307300083339214 0  -0.01656799949705601 0.0
[...]
<PointData  Vectors="velocity"> 
<DataArray  type="Float64"  Name="velocity"  NumberOfComponents="3" format="ascii">3.7279999814927578e-03 2.9810001142323017e-03 0.0000000000000000e+00  3.2130000181496143e-03 2.5679999962449074e-03 0.0000000000000000e+00  -2.2670000325888395e-03 1.5109999803826213e-03 0.0000000000000000e+00  -1.7359999474138021e-03 1.5109999803826213e-03 0.0000000000000000e+00  -2.2670000325888395e-03 1.5109999803826213e-03 0.0000000000000000e+00  7.0940000005066395e-03 5.6150001473724842e-03 0.0000000000000000e+00  6.9240001030266285e-03 5.4440000094473362e-03 0.0000000000000000e+00  1.0529999621212482e-02 7.8579997643828392e-03 0.0000000000000000e+00  6.5469997934997082e-03 5.0969999283552170e-03 0.0000000000000000e+00  1.1161999776959419e-02 8.4370002150535583e-03 0.0000000000000000e+00  4.7450000420212746e-03 8.7599997641518712e-04 0.0000000000000000e+00  1.1133000254631042e-02 4.6749999746680260e-03 0.0000000000000000e+00  5.9469998814165592e-03 1.3589999871328473e-03 0.0000000000000000e+00  1.2790000066161156e-02 5.5309999734163284e-03 0.0000000000000000e+00  -1.8293999135494232e-02 -5.2469000220298767e-02 0.0000000000000000e+00  1.1555000208318233e-02 -2.8442999348044395e-02 0.0000000000000000e+00  1.1084999889135361e-02 -2.8208000585436821e-02 0.0000000000000000e+00  -1.5453999862074852e-02 -7.7876001596450806e-02 0.0000000000000000e+00  -1.4565999619662762e-02 -6.7261002957820892e-02 0.0000000000000000e+00  -1.2655000202357769e-02 -6.7670002579689026e-02 0.0000000000000000e+00  1.2844000011682510e-02 -2.6443000882863998e-02 0.0000000000000000e+00  -8.1123001873493195e-02 -7.7440999448299408e-02 0.0000000000000000e+00  -7.1491003036499023e-02 -6.3739001750946045e-02 0.0000000000000000e+00  -8.7912000715732574e-02 -8.2492999732494354e-02 0.0000000000000000e+00  -5.1506001502275467e-02 -5.7445999234914780e-02 0.0000000000000000e+00  -6.1941999942064285e-02 -6.6380001604557037e-02 0.0000000000000000e+00  -5.1229998469352722e-02 -5.1256000995635986e-02 0.0000000000000000e+00  -6.0734000056982040e-02 -7.2541996836662292e-02 0.0000000000000000e+00  2.8230000752955675e-03 2.1420000120997429e-03 0.0000000000000000e+00  5.3699999116361141e-03 4.0170000866055489e-03 0.0000000000000000e+00  3.9240000769495964e-03 2.7860000263899565e-03 0.0000000000000000e+00  2.5869999080896378e-03 1.6690000193193555e-03 0.0000000000000000e+00  1.6449999529868364e-03 1.1040000244975090e-03 0.0000000000000000e+00  6.8529997952282429e-03 4.7789998352527618e-03 0.0000000000000000e+00  8.3999997004866600e-03 6.0499999672174454e-03 0.0000000000000000e+00  1.2098999693989754e-02 8.3419997245073318e-03 0.0000000000000000e+00  1.0149000212550163e-02 6.8190000019967556e-03 0.0000000000000000e+00  3.3360000234097242e-03 2.6249999646097422e-03 0.0000000000000000e+00  3.5399998887442052e-04 7.7099999180063605e-04 0.0000000000000000e+00  -7.5599999399855733e-04 1.5109999803826213e-03 0.0000000000000000e+00  -1.2319999514147639e-03 1.5109999803826213e-03 0.0000000000000000e+00  3.3050000201910734e-03 2.6350000407546759e-03 0.0000000000000000e+00  3.3990000374615192e-03 2.7230000123381615e-03 0.0000000000000000e+00  2.4243000894784927e-02 1.6140000894665718e-02 0.0000000000000000e+00  1.7929000779986382e-02 1.2702000327408314e-02 0.0000000000000000e+00  2.2567000240087509e-02 1.5084000304341316e-02 0.0000000000000000e+00  1.9705999642610550e-02 1.3729000464081764e-02 0.0000000000000000e+00  1.4801999554038048e-02 1.0828999802470207e-02 0.0000000000000000e+00  1.9595999270677567e-02 1.3456000015139580e-02 0.0000000000000000e+00  5.2760999649763107e-02 9.9111996591091156e-02 0.0000000000000000e+00  5.2230000495910645e-02 1.0205800086259842e-01 0.0000000000000000e+00  -1.0336999781429768e-02 -3.5195998847484589e-02 0.0000000000000000e+00  5.8699000626802444e-02 8.5262000560760498e-02 0.0000000000000000e+00  5.5341001600027084e-02 7.8305996954441071e-02 0.0000000000000000e+00  5.8139000087976456e-02 8.6557999253273010e-02 0.0000000000000000e+00  -2.7805000543594360e-02 4.6376001089811325e-02 0.0000000000000000e+00  -2.5503000244498253e-02 6.1025999486446381e-02 0.0000000000000000e+00  -1.9776999950408936e-02 5.9317000210285187e-02 0.0000000000000000e+00  -3.4632999449968338e-02 3.4143000841140747e-02 0.0000000000000000e+00  -3.3123999834060669e-02 5.1800001412630081e-02 0.0000000000000000e+00  -9.0195998549461365e-02 -8.0069996416568756e-02 0.0000000000000000e+00  -1.0106799751520157e-01 -9.4426997005939484e-02 0.0000000000000000e+00  -8.3388999104499817e-02 -7.5540997087955475e-02 0.0000000000000000e+00  -9.4025999307632446e-02 -8.9947000145912170e-02 0.0000000000000000e+00  9.5669999718666077e-03 2.8760999441146851e-02 0.0000000000000000e+00  7.3819998651742935e-03 2.6359999552369118e-02 0.0000000000000000e+00  4.9160001799464226e-03 2.9668999835848808e-02 0.0000000000000000e+00  1.3334999792277813e-02 -3.6283001303672791e-02 0.0000000000000000e+00  2.0196000114083290e-02 3.6058001220226288e-02 0.0000000000000000e+00  5.9930002316832542e-03 -4.3115001171827316e-02 0.0000000000000000e+00  6.8009998649358749e-03 -4.2307000607252121e-02 0.0000000000000000e+00  -4.8581998795270920e-02 -2.5837000459432602e-02 0.0000000000000000e+00  -5.8678001165390015e-02 -4.0150001645088196e-02 0.0000000000000000e+00  -4.8661001026630402e-02 -2.2576000541448593e-02 0.0000000000000000e+00  -3.9675999432802200e-02 -1.4387000352144241e-02 0.0000000000000000e+00  -4.8909999430179596e-02 -3.0309999361634254e-02 0.0000000000000000e+00  -3.9728000760078430e-02 -1.7831999808549881e-02 0.0000000000000000e+00  -5.6170001626014709e-03 2.7242999523878098e-02 0.0000000000000000e+00  -1.3599999947473407e-03 3.2448999583721161e-02 0.0000000000000000e+00  -4.8799999058246613e-04 3.1913999468088150e-02 0.0000000000000000e+00  -2.3970000445842743e-02 9.6469996497035027e-03 0.0000000000000000e+00  -1.7542999237775803e-02 1.6324000433087349e-02 0.0000000000000000e+00  -2.3554999381303787e-02 6.0370001010596752e-03 0.0000000000000000e+00  -1.6677999496459961e-01 -3.8560000248253345e-03 0.0000000000000000e+00  -1.5946100652217865e-01 1.6728000715374947e-02 0.0000000000000000e+00  -1.6427700221538544e-01 -2.4799999664537609e-04 0.0000000000000000e+00  -3.8504000753164291e-02 -2.9657000675797462e-02 0.0000000000000000e+00  -2.3850999772548676e-02 -9.6249999478459358e-03 0.0000000000000000e+00  -2.7488000690937042e-02 -4.7900001518428326e-03 0.0000000000000000e+00  -2.2670000325888395e-03 0.0000000000000000e+00 0.0000000000000000e+00  -2.4969999212771654e-03 -2.3099999816622585e-04 0.0000000000000000e+00  -2.5080000050365925e-03 2.4199999461416155e-04 0.0000000000000000e+00  -2.7600000612437725e-03 4.9399997806176543e-04 0.0000000000000000e+00  -3.0219999607652426e-03 7.5599999399855733e-04 0.0000000000000000e+00  5.1870001479983330e-03 2.3870000150054693e-03 0.0000000000000000e+00  -3.0219999607652426e-03 1.0029999539256096e-03 0.0000000000000000e+00  5.4529998451471329e-03 2.2259999532252550e-03 0.0000000000000000e+00  1.1323999613523483e-02 5.8980002067983150e-03 0.0000000000000000e+00  7.1910000406205654e-03 2.9309999663382769e-03 0.0000000000000000e+00  3.5937000066041946e-02 2.0703999325633049e-02 0.0000000000000000e+00  2.7564000338315964e-02 1.5794999897480011e-02 0.0000000000000000e+00  2.8797000646591187e-02 1.5970999374985695e-02 0.0000000000000000e+00  2.0806999877095222e-02 1.0866999626159668e-02 0.0000000000000000e+00  2.7826000005006790e-02 1.5200999565422535e-02 0.0000000000000000e+00  1.9721999764442444e-02 1.0727999731898308e-02 0.0000000000000000e+00  3.4940999001264572e-02 2.0571999251842499e-02 0.0000000000000000e+00  2.5514999404549599e-02 1.6171999275684357e-02 0.0000000000000000e+00  2.8955999761819839e-02 1.8378999084234238e-02 0.0000000000000000e+00  3.2701998949050903e-02 1.9941000267863274e-02 0.0000000000000000e+00  1.8946999683976173e-02 9.4710001721978188e-03 0.0000000000000000e+00  4.1673999279737473e-02 3.3057998865842819e-02 0.0000000000000000e+00  3.9632998406887054e-02 3.3991001546382904e-02 0.0000000000000000e+00  4.6502999961376190e-02 3.8270000368356705e-02 0.0000000000000000e+00  7.4272997677326202e-02 4.8889998346567154e-02 0.0000000000000000e+00  7.4621997773647308e-02 4.8595998436212540e-02 0.0000000000000000e+00  7.0321999490261078e-02 4.8436999320983887e-02 0.0000000000000000e+00  1.7668999731540680e-02 8.9320000261068344e-03 0.0000000000000000e+00  4.4129998423159122e-03 2.2630000021308661e-03 0.0000000000000000e+00  6.8040001206099987e-03 3.1270000617951155e-03 0.0000000000000000e+00  1.2769999448210001e-03 4.8999998398358002e-05 0.0000000000000000e+00  -2.7459999546408653e-03 -4.7999998787418008e-04 0.0000000000000000e+00  -3.0219999607652426e-03 -7.5599999399855733e-04 0.0000000000000000e+00  4.8535998910665512e-02 6.3331998884677887e-02 0.0000000000000000e+00  4.3885998427867889e-02 5.4797001183032990e-02 0.0000000000000000e+00  4.6386998146772385e-02 5.9636000543832779e-02 0.0000000000000000e+00  5.1523998379707336e-02 6.9087997078895569e-02 0.0000000000000000e+00  1.2985900044441223e-01 1.5252600610256195e-01 0.0000000000000000e+00  1.2973099946975708e-01 1.6002899408340454e-01 0.0000000000000000e+00  1.2411300092935562e-01 1.5843200683593750e-01 0.0000000000000000e+00  3.3117000013589859e-02 3.7020999938249588e-02 0.0000000000000000e+00  -1.9642999395728111e-02 -1.1132000014185905e-02 0.0000000000000000e+00  -1.9642999395728111e-02 -1.1622999794781208e-02 0.0000000000000000e+00  3.6922000348567963e-02 5.6088000535964966e-02 0.0000000000000000e+00  -1.8888000398874283e-02 -1.5147999860346317e-02 0.0000000000000000e+00  -1.8888000398874283e-02 -1.5859000384807587e-02 0.0000000000000000e+00  5.1506999880075455e-02 9.6419997513294220e-02 0.0000000000000000e+00  6.1817001551389694e-02 1.0796999931335449e-01 0.0000000000000000e+00  5.3390000015497208e-02 9.1564998030662537e-02 0.0000000000000000e+00  5.5837001651525497e-02 8.7141998112201691e-02 0.0000000000000000e+00  4.4192999601364136e-02 7.4859999120235443e-02 0.0000000000000000e+00  6.5352000296115875e-02 1.0319799929857254e-01 0.0000000000000000e+00  7.2695001959800720e-02 1.1856599897146225e-01 0.0000000000000000e+00  6.8262003362178802e-02 9.9422000348567963e-02 0.0000000000000000e+00  7.2934001684188843e-02 9.5542997121810913e-02 0.0000000000000000e+00  8.1128001213073730e-02 1.0978599637746811e-01 0.0000000000000000e+00  8.5295997560024261e-02 1.0621699690818787e-01 0.0000000000000000e+00  6.2164999544620514e-02 9.1831997036933899e-02 0.0000000000000000e+00  6.6055998206138611e-02 1.0278599709272385e-01 0.0000000000000000e+00  6.4157001674175262e-02 9.6427001059055328e-02 0.0000000000000000e+00  6.7813999950885773e-02 1.0798300057649612e-01 0.0000000000000000e+00  -4.2460002005100250e-03 -6.0439999215304852e-03 0.0000000000000000e+00  -4.7510000877082348e-03 -6.0439999215304852e-03 0.0000000000000000e+00  -2.1480000577867031e-03 -1.1520000407472253e-03 0.0000000000000000e+00  -5.5699999211356044e-04 -1.3899999612476677e-04 0.0000000000000000e+00  9.3207001686096191e-02 1.1892800033092499e-01 0.0000000000000000e+00  1.2881700694561005e-01 1.5141800045967102e-01 0.0000000000000000e+00  1.2904199957847595e-01 1.5714299678802490e-01 0.0000000000000000e+00  1.3512100279331207e-01 1.5155200660228729e-01 0.0000000000000000e+00  1.2272699922323227e-01 1.5678599476814270e-01 0.0000000000000000e+00  6.9232001900672913e-02 1.2275400012731552e-01 0.0000000000000000e+00  4.9651000648736954e-02 3.0572000890970230e-02 0.0000000000000000e+00  5.5199000984430313e-02 3.3091999590396881e-02 0.0000000000000000e+00  4.1430998593568802e-02 2.4668000638484955e-02 0.0000000000000000e+00  1.5244899690151215e-01 8.5105001926422119e-02 0.0000000000000000e+00  1.5749500691890717e-01 8.4454998373985291e-02 0.0000000000000000e+00  1.4883999526500702e-01 7.9790003597736359e-02 0.0000000000000000e+00  1.5415200591087341e-01 7.9380996525287628e-02 0.0000000000000000e+00  1.6233600676059723e-01 8.3530999720096588e-02 0.0000000000000000e+00  1.4867700636386871e-01 7.4322000145912170e-02 0.0000000000000000e+00  1.4332500100135803e-01 7.4523001909255981e-02 0.0000000000000000e+00  1.6109000146389008e-01 8.8844001293182373e-02 0.0000000000000000e+00  1.2076999992132187e-02 -2.6698000729084015e-02 0.0000000000000000e+00  -1.5503999777138233e-02 -6.7451000213623047e-02 0.0000000000000000e+00  1.1374999769032001e-02 -2.6931999251246452e-02 0.0000000000000000e+00  -1.8345000222325325e-02 -7.9098001122474670e-02 0.0000000000000000e+00  -2.0400999113917351e-02 -8.0173999071121216e-02 0.0000000000000000e+00  -2.6102999225258827e-02 -9.3546003103256226e-02 0.0000000000000000e+00  -2.2819999605417252e-02 -8.2904003560543060e-02 0.0000000000000000e+00  -2.7525000274181366e-02 -1.0502599924802780e-01 0.0000000000000000e+00  -3.1456999480724335e-02 -1.0666300356388092e-01 0.0000000000000000e+00  -2.7875000610947609e-02 -9.4915002584457397e-02 0.0000000000000000e+00  1.3899000361561775e-02 -2.6179000735282898e-02 0.0000000000000000e+00  -4.9036998301744461e-02 -4.4635001569986343e-02 0.0000000000000000e+00  -3.9583001285791397e-02 -3.7252999842166901e-02 0.0000000000000000e+00  -6.9000001531094313e-04 1.9873000681400299e-02 0.0000000000000000e+00  1.4609999489039183e-03 1.7874000594019890e-02 0.0000000000000000e+00  -1.5160000184550881e-03 1.6891999170184135e-02 0.0000000000000000e+00  4.7299999278038740e-04 1.5348000451922417e-02 0.0000000000000000e+00  -1.7000000225380063e-03 1.4027000404894352e-02 0.0000000000000000e+00  3.9500001003034413e-04 2.6768999174237251e-02 0.0000000000000000e+00  -2.4610001128166914e-03 2.7574999257922173e-02 0.0000000000000000e+00  1.0779999429360032e-03 2.9928000643849373e-02 0.0000000000000000e+00  -7.8025996685028076e-02 -6.9723002612590790e-02 0.0000000000000000e+00  -1.4818799495697021e-01 -1.7673799395561218e-01 0.0000000000000000e+00  -1.5545600652694702e-01 -1.8468299508094788e-01 0.0000000000000000e+00  -1.5119500458240509e-01 -1.7373000085353851e-01 0.0000000000000000e+00  -1.5376800298690796e-01 -1.7050699889659882e-01 0.0000000000000000e+00  -1.5760299563407898e-01 -1.8194299936294556e-01 0.0000000000000000e+00  -1.0792200267314911e-01 -1.5624800324440002e-01 0.0000000000000000e+00  -9.9486999213695526e-02 -1.5935599803924561e-01 0.0000000000000000e+00  -1.0834299772977829e-01 -1.6868799924850464e-01 0.0000000000000000e+00  -1.1693000048398972e-01 -1.7720100283622742e-01 0.0000000000000000e+00  -1.1036799848079681e-01 -1.8019300699234009e-01 0.0000000000000000e+00  -7.1679003536701202e-02 -8.2713998854160309e-02 0.0000000000000000e+00  -7.9717002809047699e-02 -9.9155999720096588e-02 0.0000000000000000e+00  -6.8542003631591797e-02 -8.8054001331329346e-02 0.0000000000000000e+00  -5.7748001068830490e-02 -7.7587999403476715e-02 0.0000000000000000e+00  -2.6048000901937485e-02 -8.3729997277259827e-02 0.0000000000000000e+00  -2.1316999569535255e-02 -6.2574997544288635e-02 0.0000000000000000e+00  -2.3961000144481659e-02 -6.1974998563528061e-02 0.0000000000000000e+00  9.4200001331046224e-04 3.7900000461377203e-04 0.0000000000000000e+00  1.5109999803826213e-03 0.0000000000000000e+00 0.0000000000000000e+00  2.2150001022964716e-03 -5.2800000412389636e-04 0.0000000000000000e+00  2.9740000609308481e-03 -1.0969999711960554e-03 0.0000000000000000e+00  1.2100000167265534e-03 7.2000001091510057e-04 0.0000000000000000e+00  9.5779998227953911e-03 7.0409998297691345e-03 0.0000000000000000e+00  1.3755000196397305e-02 9.6610002219676971e-03 0.0000000000000000e+00  6.0680001042783260e-03 4.6520000323653221e-03 0.0000000000000000e+00  -2.1699999342672527e-04 1.1520000407472253e-03 0.0000000000000000e+00  -2.5059999898076057e-03 1.5109999803826213e-03 0.0000000000000000e+00  5.4990001954138279e-03 4.2269998230040073e-03 0.0000000000000000e+00  -2.2670000325888395e-03 1.5109999803826213e-03 0.0000000000000000e+00  -2.7509999927133322e-03 1.5109999803826213e-03 0.0000000000000000e+00  1.5033000148832798e-02 1.0738000273704529e-02 0.0000000000000000e+00  2.4878000840544701e-02 1.6341999173164368e-02 0.0000000000000000e+00  2.9226999729871750e-02 1.8427999690175056e-02 0.0000000000000000e+00  2.3664999753236771e-02 1.5368999913334846e-02 0.0000000000000000e+00  3.4297998994588852e-02 2.8286999091506004e-02 0.0000000000000000e+00  3.6497998982667923e-02 2.6210999116301537e-02 0.0000000000000000e+00  2.9438000172376633e-02 2.1309999749064445e-02 0.0000000000000000e+00  3.6173999309539795e-02 2.0748000591993332e-02 0.0000000000000000e+00  4.9219001084566116e-02 3.1135000288486481e-02 0.0000000000000000e+00  5.3426999598741531e-02 3.5401001572608948e-02 0.0000000000000000e+00  5.2884999662637711e-02 3.5084001719951630e-02 0.0000000000000000e+00  4.7437999397516251e-02 3.0193999409675598e-02 0.0000000000000000e+00  4.1613001376390457e-02 2.5364000350236893e-02 0.0000000000000000e+00  5.6600999087095261e-02 3.8894001394510269e-02 0.0000000000000000e+00  5.9362001717090607e-02 4.1777998208999634e-02 0.0000000000000000e+00  5.7567998766899109e-02 4.1714999824762344e-02 0.0000000000000000e+00  4.7141999006271362e-02 6.1964001506567001e-02 0.0000000000000000e+00  4.2723000049591064e-02 5.4448001086711884e-02 0.0000000000000000e+00  4.6944998204708099e-02 6.1939001083374023e-02 0.0000000000000000e+00  6.4111001789569855e-02 9.9830999970436096e-02 0.0000000000000000e+00  6.2859997153282166e-02 9.3864001333713531e-02 0.0000000000000000e+00  6.6537000238895416e-02 1.0623800009489059e-01 0.0000000000000000e+00  6.4193002879619598e-02 1.7663499712944031e-01 0.0000000000000000e+00  6.2758997082710266e-02 1.9109399616718292e-01 0.0000000000000000e+00  6.2963999807834625e-02 1.8674199283123016e-01 0.0000000000000000e+00  -1.0576999746263027e-02 -3.3998001366853714e-02 0.0000000000000000e+00  6.0844998806715012e-02 1.0076700150966644e-01 0.0000000000000000e+00  6.0933999717235565e-02 1.0702600330114365e-01 0.0000000000000000e+00  6.3951998949050903e-02 1.0841699689626694e-01 0.0000000000000000e+00  6.3844002783298492e-02 1.0212499648332596e-01 0.0000000000000000e+00  6.0692999511957169e-02 9.6515998244285583e-02 0.0000000000000000e+00  5.9852998703718185e-02 9.1912999749183655e-02 0.0000000000000000e+00  7.0517003536224365e-02 1.2003800272941589e-01 0.0000000000000000e+00  6.8970002233982086e-02 1.1362700164318085e-01 0.0000000000000000e+00  7.1327999234199524e-02 1.2619300186634064e-01 0.0000000000000000e+00  6.9798000156879425e-02 1.1945699900388718e-01 0.0000000000000000e+00  6.0444999486207962e-02 8.8077001273632050e-02 0.0000000000000000e+00  6.2091000378131866e-02 9.4116002321243286e-02 0.0000000000000000e+00  6.5468996763229370e-02 1.0337000340223312e-01 0.0000000000000000e+00  6.6333003342151642e-02 1.1162400245666504e-01 0.0000000000000000e+00  6.8149000406265259e-02 1.2215500324964523e-01 0.0000000000000000e+00  6.8790003657341003e-02 1.1808600276708603e-01 0.0000000000000000e+00  6.3813999295234680e-02 9.7515001893043518e-02 0.0000000000000000e+00  -4.7207999974489212e-02 6.6260001622140408e-03 0.0000000000000000e+00  -5.2149999886751175e-02 -6.7429998889565468e-03 0.0000000000000000e+00  -5.5305000394582748e-02 7.4060000479221344e-03 0.0000000000000000e+00  -4.0844000875949860e-02 4.8530001193284988e-02 0.0000000000000000e+00  -3.9209000766277313e-02 3.7193000316619873e-02 0.0000000000000000e+00  -4.5752000063657761e-02 3.1991001218557358e-02 0.0000000000000000e+00  -4.1312001645565033e-02 2.0355999469757080e-02 0.0000000000000000e+00  -6.8603001534938812e-02 -5.0131000578403473e-02 0.0000000000000000e+00  -5.2829999476671219e-02 -3.2074999064207077e-02 0.0000000000000000e+00  -5.8479998260736465e-02 -3.6387000232934952e-02 0.0000000000000000e+00  -6.9104000926017761e-02 -5.4372001439332962e-02 0.0000000000000000e+00  -1.0275000333786011e-01 -9.8879002034664154e-02 0.0000000000000000e+00  -1.3809600472450256e-01 -1.3846400380134583e-01 0.0000000000000000e+00  -1.4455799758434296e-01 -1.4294099807739258e-01 0.0000000000000000e+00  -1.5451000630855560e-01 -1.5063999593257904e-01 0.0000000000000000e+00  -7.858800143003