<?xml version="1.0"?>
<VTKFile type="UnstructuredGrid"  version="0.1"  >
<UnstructuredGrid>
<Piece  NumberOfPoints="6340" NumberOfCells="12376">
<Points>
<DataArray  type="Float64"  NumberOfComponents="3"  format="ascii">-0.01955999992787838 0.0207310002297163 0  -0.02034400030970573 0.02143199928104877 0  -0.02054999954998493 0.02043000049889088 0  -0.02119999937713146 0.0212590005248785 0  -0.01977499946951866 0.01980699971318245 0  -0.01942100003361702 0.02161299996078014 0  -0.02000599913299084 0.02239399962127209 0  -0.01952500082552433 0.02319700084626675 0  -0.02056200057268143 0.02321700006723404 0  -0.0189449992030859 0.02233199961483479 0  -0.007860999554395676 0.01813199929893017 0  -0.008550000376999378 0.01896700076758862 0  -0.008876999840140343 0.01802599988877773 0  -0.009575000032782555 0.01889899931848049 0  -0.02600900083780289 0.07845000177621841 0  -0.02694500051438808 0.07898399978876114 0  -0.02712499909102917 0.07820399850606918 0  -0.02656999975442886 0.07186900079250336 0  -0.02719799987971783 0.0726659968495369 0  -0.02740000002086163 0.07178100198507309 0  -0.0281399991363287 0.07230000197887421 0  -0.01204000040888786 0.08900199830532074 0  -0.01293899957090616 0.08897200226783752 0  -0.01241800002753735 0.0882050022482872 0  -0.01978199928998947 0.08391299843788147 0  -0.01876999996602535 0.083965003490448 0  -0.01922499947249889 0.08475500345230103 0  -0.01932800002396107 0.08311799913644791 0  -0.02250299975275993 0.02494500018656254 0  -0.02154600061476231 0.02493399940431118 0  -0.0219969991594553 0.02581300027668476 0  -0.02240199968218803 0.02669399976730347 0  -0.02297299914062023 0.0258370004594326 0  -0.02103099972009659 0.02580600045621395 0  -0.0205559991300106 0.02491899952292442 0  -0.01954999938607216 0.02489900030195713 0  -0.02004100009799004 0.02578200027346611 0  -0.02204599976539612 0.02404499985277653 0  -0.02309500053524971 0.02412199974060059 0  -0.02239999920129776 0.02278999984264374 0  -0.02181700058281422 0.02204700000584126 0  -0.02155799977481365 0.02314200066030025 0  -0.02095000073313713 0.02229500003159046 0  -0.01603399962186813 0.02196799963712692 0  -0.01655399985611439 0.02108700014650822 0  -0.01549500040709972 0.02108200080692768 0  -0.01702000014483929 0.0220710001885891 0  -0.01802700012922287 0.02211000025272369 0  -0.01752999983727932 0.02298600040376186 0  0.0396450012922287 0.08192099630832672 0  0.03945500031113625 0.08105199784040451 0  0.04065499827265739 0.0813089981675148 0  0.04105500131845474 0.09286999702453613 0  0.04176900163292885 0.09322299808263779 0  0.04075099900364876 0.09373100101947784 0  0.02436400018632412 0.1019150018692017 0  0.02454200014472008 0.1010169982910156 0  0.02536600083112717 0.1014140024781227 0  0.02344300039112568 0.1023750007152557 0  0.02361699938774109 0.1012869998812675 0  -0.0068660001270473 0.0969420000910759 0  -0.005991999991238117 0.09703999757766724 0  -0.006574000231921673 0.09779299795627594 0  -0.005688999779522419 0.09790000319480896 0  -0.01730499975383282 0.09809199720621109 0  -0.01763699948787689 0.09742199629545212 0  -0.01663899980485439 0.09752500057220459 0  -0.0182070005685091 0.09827499836683273 0  -0.01432100031524897 0.1036769971251488 0  -0.01459100004285574 0.1045129969716072 0  -0.01505099982023239 0.1038289964199066 0  -0.01035199966281652 0.09602600336074829 0  -0.009552000090479851 0.09603799879550934 0  -0.01012600027024746 0.09680400043725967 0  -0.01115700043737888 0.09601800143718719 0  -0.01058300025761127 0.09525299817323685 0  -0.01138699986040592 0.09524600207805634 0  -0.01367800030857325 0.09826000034809113 0  -0.01421300042420626 0.09899300336837769 0  -0.01452300045639277 0.09823700040578842 0  -0.01253999955952168 0.09676799923181534 0  -0.01337399985641241 0.09675999730825424 0  -0.01279199961572886 0.096001997590065 0  0.01100299973040819 0.09357099980115891 0  0.01196399983018637 0.09352400153875351 0  0.0113909998908639 0.0943560004234314 0  0.007482000160962343 0.07844500243663788 0  0.008011999540030956 0.07760799676179886 0  0.008441999554634094 0.07839799672365189 0  -0.007559999823570251 0.01726000010967255 0  -0.006736000068485737 0.01749200001358986 0  -0.008438999764621258 0.01712900027632713 0  -0.009356999769806862 0.01699200086295605 0  -0.01305999979376793 0.01686999946832657 0  -0.0133260004222393 0.01795200072228909 0  -0.01394100021570921 0.01705699972808361 0  -0.01248900033533573 0.01777499914169312 0  -0.01252199988812208 0.01879899948835373 0  -0.0116569995880127 0.01796399988234043 0  -0.01206899993121624 0.02172699943184853 0  -0.01255500037223101 0.0207700002938509 0  -0.01159899961203337 0.02081999927759171 0  -0.01112200040370226 0.01997300051152706 0  -0.01056700013577938 0.02082099951803684 0  -0.01208299957215786 0.01981900073587894 0  -0.01303800009191036 0.02173699997365475 0  -0.01449200045317411 0.0209560003131628 0  -0.01500700041651726 0.02191999927163124 0  -0.01401100028306246 0.02181600034236908 0  -0.009060000069439411 0.01984900049865246 0  -0.01100200042128563 0.03071999922394753 0  -0.01151200011372566 0.02984900027513504 0  -0.01049800030887127 0.02980099990963936 0  -0.005429999902844429 0.02955099940299988 0  -0.005934000015258789 0.03047399967908859 0  -0.006440999917685986 0.02960499934852123 0  -0.008081999607384205 0.01992800086736679 0  -0.005563999991863966 0.01941799931228161 0  -0.006552000064402819 0.01923999935388565 0  -0.005766999907791615 0.01857299916446209 0  -0.00584599981084466 0.01774300076067448 0  -0.004860000219196081 0.01802000030875206 0  0.04306099936366081 0.089028000831604 0  0.04390700161457062 0.08859100192785263 0  0.04357799887657166 0.08963699638843536 0  0.04257600009441376 0.08976899832487106 0  0.01641900092363358 0.05920799821615219 0  0.01744800060987473 0.05913899838924408 0  0.01696800068020821 0.06001999974250793 0  0.03007400035858154 0.0445760004222393 0  0.03055699914693832 0.04353800043463707 0  0.0310050006955862 0.04427799955010414 0  0.03202499821782112 0.04879999905824661 0  0.03292600065469742 0.04814599826931953 0  0.03322700038552284 0.0488860011100769 0  0.03164900094270706 0.05219300091266632 0  0.03073799982666969 0.05227100104093552 0  0.03128499910235405 0.05135399848222733 0  0.03089600056409836 0.05054000020027161 0  0.03187200054526329 0.05044100061058998 0  0.03033499978482723 0.05144299939274788 0  0.02979799918830395 0.05234900116920471 0  0.02990199998021126 0.05065299943089485 0  0.02940399944782257 0.049880001693964 0  0.02890099957585335 0.05074900016188622 0  0.02838600054383278 0.04995999857783318 0  0.04052599892020226 0.09133099764585495 0  0.03953000158071518 0.09138199687004089 0  0.04011400043964386 0.09056299924850464 0  0.03913899883627892 0.09058199822902679 0  0.008310999721288681 0.02487399987876415 0  0.009074999950826168 0.02535099908709526 0  0.008313000202178955 0.0259380005300045 0  0.009146999567747116 0.02631199918687344 0  0.02789199911057949 0.05083100125193596 0  0.02388699911534786 0.05278899893164635 0  0.02340199984610081 0.05366799980401993 0  0.02286799997091293 0.05285099893808365 0  0.02441100031137466 0.05360500141978264 0  0.03022499941289425 0.05317100137472153 0  0.01925900019705296 0.03595200181007385 0  0.01836699992418289 0.03580199927091599 0  0.01879299990832806 0.0349229983985424 0  0.01369099970906973 0.04109599813818932 0  0.01274400018155575 0.04109000042080879 0  0.01321799959987402 0.0402120016515255 0  0.0122699998319149 0.04020600020885468 0  0.01179699972271919 0.04108300060033798 0  0.01179299969226122 0.03931999951601028 0  0.01274400018155575 0.03932899981737137 0  0.01321799959987402 0.04197400063276291 0  -0.02802200056612492 0.07315599918365479 0  -0.02691599912941456 0.07347399741411209 0  -0.02791300043463707 0.0739390030503273 0  -0.02622799947857857 0.07274799793958664 0  -0.02584400027990341 0.07355800271034241 0  -0.02480500005185604 0.07364500313997269 0  -0.02529199980199337 0.0744049996137619 0  -0.02421800047159195 0.07289399951696396 0  -0.02378600090742111 0.07371699810028076 0  -0.02431200072169304 0.07447800040245056 0  -0.02822699956595898 0.07140599936246872 0  -0.01867000013589859 0.08558700233697891 0  -0.01967900060117245 0.08554200083017349 0  -0.01759799942374229 0.09431800246238708 0  -0.01849599927663803 0.09432700276374817 0  -0.01795200072228909 0.0935479998588562 0  -0.01884599961340427 0.09356100112199783 0  -0.01831500045955181 0.09277399629354477 0  -0.0167590007185936 0.09676799923181534 0  -0.0159280002117157 0.09677500277757645 0  -0.01573199965059757 0.09752699732780457 0  -0.01334299985319376 0.08817200362682343 0  -0.01136100012809038 0.08189799636602402 0  -0.01035299990326166 0.08195000141859055 0  -0.01081399992108345 0.08273500204086304 0  -0.01030000019818544 0.08355999737977982 0  -0.009825999848544598 0.08278000354766846 0  -0.01549999974668026 0.08000200241804123 0  -0.016032999381423 0.07913599908351898 0  -0.01503199990838766 0.079196996986866 0  -0.01403000019490719 0.07925599813461304 0  -0.01454600039869547 0.07839500159025192 0  -0.01831699907779694 0.0831729993224144 0  -0.0178689993917942 0.08236800134181976 0  -0.01888000033795834 0.08230900019407272 0  -0.01989299990236759 0.08225200325250626 0  -0.02486800029873848 0.07524800300598145 0  -0.02539700083434582 0.07767199724912643 0  -0.02496300078928471 0.07851299643516541 0  -0.02346399985253811 0.02482699975371361 0  -0.02381999976933002 0.02551000006496906 0  -0.02406499907374382 0.0261829998344183 0  -0.02432800084352493 0.02690899930894375 0  -0.02333999983966351 0.02675499953329563 0  -0.02005399949848652 0.02405299991369247 0  -0.01903799921274185 0.02402099967002869 0  -0.02107400074601173 0.02405400015413761 0  -0.02273700013756752 0.02343600057065487 0  -0.017493000254035 0.01824700087308884 0  -0.01711099967360497 0.01901100017130375 0  -0.01830000057816505 0.01861999928951263 0  -0.01666500046849251 0.01786400005221367 0  -0.01849300041794777 0.02312899939715862 0  -0.016529999673366
[...]
<PointData  Vectors="velocity"> 
<DataArray  type="Float64"  Name="velocity"  NumberOfComponents="3" format="ascii">5.1899999380111694e-04 5.0199998077005148e-04 0.0000000000000000e+00  3.4599998616613448e-04 3.5099999513477087e-04 0.0000000000000000e+00  -1.5109999803826213e-03 1.5109999803826213e-03 0.0000000000000000e+00  -1.5109999803826213e-03 1.7760000191628933e-03 0.0000000000000000e+00  -1.2509999796748161e-03 9.9099997896701097e-04 0.0000000000000000e+00  9.9099997896701097e-04 9.2800002312287688e-04 0.0000000000000000e+00  7.9899997217580676e-04 7.8699999721720815e-04 0.0000000000000000e+00  1.1769999982789159e-03 1.1609999928623438e-03 0.0000000000000000e+00  5.5400002747774124e-04 6.2800000887364149e-04 0.0000000000000000e+00  1.5739999944344163e-03 1.4290000544860959e-03 0.0000000000000000e+00  -8.1999998656101525e-05 4.0469998493790627e-03 0.0000000000000000e+00  6.4579998143017292e-03 7.8630000352859497e-03 0.0000000000000000e+00  2.2100000642240047e-03 5.2049998193979263e-03 0.0000000000000000e+00  7.2249998338520527e-03 8.1690000370144844e-03 0.0000000000000000e+00  -1.5010000206530094e-03 1.1115999892354012e-02 0.0000000000000000e+00  1.0088000446557999e-02 2.3910000920295715e-02 0.0000000000000000e+00  1.0323000140488148e-02 2.3675000295042992e-02 0.0000000000000000e+00  -3.9800000376999378e-04 7.3250001296401024e-03 0.0000000000000000e+00  -1.2799999676644802e-03 1.1288000270724297e-02 0.0000000000000000e+00  -6.1200000345706940e-04 1.2573000043630600e-02 0.0000000000000000e+00  1.0576999746263027e-02 2.3421000689268112e-02 0.0000000000000000e+00  -4.5464999973773956e-02 -3.7459999322891235e-02 0.0000000000000000e+00  -4.0534999221563339e-02 -3.0533000826835632e-02 0.0000000000000000e+00  -4.8413999378681183e-02 -3.8982000201940536e-02 0.0000000000000000e+00  -2.1931000053882599e-02 -1.1865000240504742e-02 0.0000000000000000e+00  -2.7901999652385712e-02 -1.9226999953389168e-02 0.0000000000000000e+00  -2.3967999964952469e-02 -1.1300999671220779e-02 0.0000000000000000e+00  -2.5255000218749046e-02 -1.9720999523997307e-02 0.0000000000000000e+00  -1.9799999427050352e-04 1.5599999460391700e-04 0.0000000000000000e+00  -1.7100000695791095e-04 2.7799999224953353e-04 0.0000000000000000e+00  -5.8900000294670463e-04 1.8600000475998968e-04 0.0000000000000000e+00  -1.0910000419244170e-03 1.2899999273940921e-04 0.0000000000000000e+00  -4.6099998871795833e-04 1.3499999477062374e-04 0.0000000000000000e+00  -5.8599998010322452e-04 3.2699998700991273e-04 0.0000000000000000e+00  8.9000001025851816e-05 5.7700002798810601e-04 0.0000000000000000e+00  5.7500001275911927e-04 1.0069999843835831e-03 0.0000000000000000e+00  -3.2200000714510679e-04 6.1799999093636870e-04 0.0000000000000000e+00  1.8999999156221747e-05 1.9999999494757503e-04 0.0000000000000000e+00  -1.8810000037774444e-03 3.3760000951588154e-03 0.0000000000000000e+00  -1.5109999803826213e-03 2.2670000325888395e-03 0.0000000000000000e+00  -1.5109999803826213e-03 2.0290000829845667e-03 0.0000000000000000e+00  1.8600000475998968e-04 2.6900001103058457e-04 0.0000000000000000e+00  3.0399998649954796e-04 3.3400001120753586e-04 0.0000000000000000e+00  5.1440000534057617e-03 4.1609997861087322e-03 0.0000000000000000e+00  4.1209999471902847e-03 3.3720000647008419e-03 0.0000000000000000e+00  5.8050001971423626e-03 4.6629998832941055e-03 0.0000000000000000e+00  3.6430000327527523e-03 3.0139998998492956e-03 0.0000000000000000e+00  2.4160000029951334e-03 2.0840000361204147e-03 0.0000000000000000e+00  3.0010000336915255e-03 2.5619999505579472e-03 0.0000000000000000e+00  3.4628000110387802e-02 8.1110000610351562e-02 0.0000000000000000e+00  3.2265000045299530e-02 8.1487998366355896e-02 0.0000000000000000e+00  3.6300998181104660e-02 4.2031999677419662e-02 0.0000000000000000e+00  1.4154000207781792e-02 7.1682997047901154e-02 0.0000000000000000e+00  1.2459999881684780e-02 6.8043000996112823e-02 0.0000000000000000e+00  6.4249997958540916e-03 6.9476000964641571e-02 0.0000000000000000e+00  -1.6359299421310425e-01 -3.7324000149965286e-02 0.0000000000000000e+00  -1.4879100024700165e-01 -3.5248998552560806e-02 0.0000000000000000e+00  -1.5528699755668640e-01 -2.8759999200701714e-02 0.0000000000000000e+00  -1.6926200687885284e-01 -4.4091001152992249e-02 0.0000000000000000e+00  -1.5269699692726135e-01 -4.2805999517440796e-02 0.0000000000000000e+00  -2.3755999282002449e-02 -5.6880000978708267e-02 0.0000000000000000e+00  -2.7311999350786209e-02 -6.5903998911380768e-02 0.0000000000000000e+00  -2.3467000573873520e-02 -5.6244000792503357e-02 0.0000000000000000e+00  -2.7239000424742699e-02 -6.5268002450466156e-02 0.0000000000000000e+00  1.0311000049114227e-02 2.1973999217152596e-02 0.0000000000000000e+00  1.0608999989926815e-02 2.2631000727415085e-02 0.0000000000000000e+00  8.8489996269345284e-03 1.9629999995231628e-02 0.0000000000000000e+00  2.0434999838471413e-02 4.2854998260736465e-02 0.0000000000000000e+00  8.3250002935528755e-03 1.6029000282287598e-02 0.0000000000000000e+00  3.2067999243736267e-02 5.3171001374721527e-02 0.0000000000000000e+00  3.0721999704837799e-02 5.2632998675107956e-02 0.0000000000000000e+00  -1.1381999589502811e-02 -2.3791000247001648e-02 0.0000000000000000e+00  -1.4022000133991241e-02 -3.1780999153852463e-02 0.0000000000000000e+00  -1.1700999923050404e-02 -2.3609999567270279e-02 0.0000000000000000e+00  -8.8860001415014267e-03 -1.6285000368952751e-02 0.0000000000000000e+00  -1.2310000136494637e-02 -2.3939000442624092e-02 0.0000000000000000e+00  -9.5020001754164696e-03 -1.6785999760031700e-02 0.0000000000000000e+00  2.8389999642968178e-03 7.8299995511770248e-03 0.0000000000000000e+00  5.0440002232789993e-03 1.1448999866843224e-02 0.0000000000000000e+00  4.8730000853538513e-03 1.1837000027298927e-02 0.0000000000000000e+00  -4.0290001779794693e-03 -3.2309999223798513e-03 0.0000000000000000e+00  -1.4600000577047467e-03 2.9539999086409807e-03 0.0000000000000000e+00  -4.1129998862743378e-03 -3.0429998878389597e-03 0.0000000000000000e+00  -6.1044000089168549e-02 -9.9022999405860901e-02 0.0000000000000000e+00  -5.9457000344991684e-02 -9.2247001826763153e-02 0.0000000000000000e+00  -6.4006000757217407e-02 -1.0188700258731842e-01 0.0000000000000000e+00  -4.6404998749494553e-02 -2.3482000455260277e-02 0.0000000000000000e+00  -3.1654000282287598e-02 -1.6698999330401421e-02 0.0000000000000000e+00  -4.2465001344680786e-02 -1.4774000272154808e-02 0.0000000000000000e+00  0.0000000000000000e+00 -1.5109999803826213e-03 0.0000000000000000e+00  0.0000000000000000e+00 -1.5109999803826213e-03 0.0000000000000000e+00  2.4199999461416155e-04 -1.5109999803826213e-03 0.0000000000000000e+00  4.9399997806176543e-04 -1.5109999803826213e-03 0.0000000000000000e+00  7.5599999399855733e-04 -7.5599999399855733e-04 0.0000000000000000e+00  3.0569999944418669e-03 2.5939999613910913e-03 0.0000000000000000e+00  2.6000000070780516e-04 -7.5599999399855733e-04 0.0000000000000000e+00  3.2989999745041132e-03 2.9740000609308481e-03 0.0000000000000000e+00  5.5269999429583549e-03 4.9100001342594624e-03 0.0000000000000000e+00  4.2070001363754272e-03 4.1310000233352184e-03 0.0000000000000000e+00  1.0490000247955322e-02 1.0267999954521656e-02 0.0000000000000000e+00  9.2259999364614487e-03 8.2759996876120567e-03 0.0000000000000000e+00  9.9640004336833954e-03 9.6850004047155380e-03 0.0000000000000000e+00  8.5599999874830246e-03 8.6580002680420876e-03 0.0000000000000000e+00  9.9719995632767677e-03 1.0735999792814255e-02 0.0000000000000000e+00  7.8220004215836525e-03 7.2340001352131367e-03 0.0000000000000000e+00  9.6110003069043159e-03 8.6660003289580345e-03 0.0000000000000000e+00  7.1930000558495522e-03 5.8280001394450665e-03 0.0000000000000000e+00  6.8560000509023666e-03 5.5780000984668732e-03 0.0000000000000000e+00  8.4170000627636909e-03 7.1299998089671135e-03 0.0000000000000000e+00  8.9959995821118355e-03 9.8510002717375755e-03 0.0000000000000000e+00  -3.1220000237226486e-03 1.1927999556064606e-02 0.0000000000000000e+00  -5.1850001327693462e-03 1.4806999824941158e-02 0.0000000000000000e+00  -2.1289999131113291e-03 1.3670000247657299e-02 0.0000000000000000e+00  2.0895000547170639e-02 -2.1450000349432230e-03 0.0000000000000000e+00  2.1782999858260155e-02 -4.9970000982284546e-03 0.0000000000000000e+00  1.5870999544858932e-02 -2.3999999393709004e-04 0.0000000000000000e+00  8.5749998688697815e-03 8.8929999619722366e-03 0.0000000000000000e+00  4.0099998004734516e-03 1.7800000496208668e-03 0.0000000000000000e+00  4.2420001700520515e-03 3.9769997820258141e-03 0.0000000000000000e+00  -1.5050000511109829e-03 3.0000001424923539e-04 0.0000000000000000e+00  0.0000000000000000e+00 -1.5109999803826213e-03 0.0000000000000000e+00  0.0000000000000000e+00 -1.5109999803826213e-03 0.0000000000000000e+00  2.8302000835537910e-02 6.8159997463226318e-02 0.0000000000000000e+00  2.6432000100612640e-02 6.2503002583980560e-02 0.0000000000000000e+00  2.6312999427318573e-02 6.4998999238014221e-02 0.0000000000000000e+00  2.8214000165462494e-02 7.0983998477458954e-02 0.0000000000000000e+00  6.1740998178720474e-02 3.6701001226902008e-02 0.0000000000000000e+00  5.9581998735666275e-02 4.7035999596118927e-02 0.0000000000000000e+00  6.2513999640941620e-02 4.4029001146554947e-02 0.0000000000000000e+00  2.3366000503301620e-02 3.1769998371601105e-02 0.0000000000000000e+00  5.5660000070929527e-03 1.7176000401377678e-02 0.0000000000000000e+00  5.8120000176131725e-03 1.7666999250650406e-02 0.0000000000000000e+00  2.0694000646471977e-02 4.5997999608516693e-02 0.0000000000000000e+00  7.3279999196529388e-03 1.9416000694036484e-02 0.0000000000000000e+00  7.8019998036324978e-03 1.9889999181032181e-02 0.0000000000000000e+00  2.2876000031828880e-02 6.9990001618862152e-02 0.0000000000000000e+00  2.6601999998092651e-02 7.6753996312618256e-02 0.0000000000000000e+00  2.4705000221729279e-02 6.7429997026920319e-02 0.0000000000000000e+00  2.6751000434160233e-02 6.4914003014564514e-02 0.0000000000000000e+00  2.2128999233245850e-02 5.7528000324964523e-02 0.0000000000000000e+00  2.9020000249147415e-02 7.4188001453876495e-02 0.0000000000000000e+00  3.0659999698400497e-02 8.2781001925468445e-02 0.0000000000000000e+00  3.1617000699043274e-02 7.1745000779628754e-02 0.0000000000000000e+00  3.4575998783111572e-02 6.9398999214172363e-02 0.0000000000000000e+00  3.6649998277425766e-02 7.7275000512599945e-02 0.0000000000000000e+00  4.0042001754045486e-02 7.4509002268314362e-02 0.0000000000000000e+00  2.4460000917315483e-02 7.8157998621463776e-02 0.0000000000000000e+00  2.4251999333500862e-02 8.1055000424385071e-02 0.0000000000000000e+00  2.8774999082088470e-02 8.1482999026775360e-02 0.0000000000000000e+00  2.9341999441385269e-02 8.4434002637863159e-02 0.0000000000000000e+00  7.5599999399855733e-04 3.4910000395029783e-03 0.0000000000000000e+00  7.5599999399855733e-04 3.9949999190866947e-03 0.0000000000000000e+00  1.3608999550342560e-02 7.0989998057484627e-03 0.0000000000000000e+00  1.4406000263988972e-02 7.9720001667737961e-03 0.0000000000000000e+00  4.1574999690055847e-02 8.0935001373291016e-02 0.0000000000000000e+00  5.3332999348640442e-02 8.5878998041152954e-02 0.0000000000000000e+00  5.2260000258684158e-02 8.5900001227855682e-02 0.0000000000000000e+00  5.5913001298904419e-02 8.0433003604412079e-02 0.0000000000000000e+00  4.9408998340368271e-02 9.0879999101161957e-02 0.0000000000000000e+00  2.8152000159025192e-02 8.5216999053955078e-02 0.0000000000000000e+00  4.0401000529527664e-02 2.6551999151706696e-02 0.0000000000000000e+00  4.3327998369932175e-02 2.7171999216079712e-02 0.0000000000000000e+00  3.6316998302936554e-02 2.2815000265836716e-02 0.0000000000000000e+00  7.0717997848987579e-02 2.8474999591708183e-02 0.0000000000000000e+00  7.0481002330780029e-02 2.6181999593973160e-02 0.0000000000000000e+00  7.0087000727653503e-02 2.8311999514698982e-02 0.0000000000000000e+00  7.0049002766609192e-02 2.6630999520421028e-02 0.0000000000000000e+00  7.0063002407550812e-02 2.4466000497341156e-02 0.0000000000000000e+00  6.8838000297546387e-02 2.7117999270558357e-02 0.0000000000000000e+00  6.8773001432418823e-02 2.8256999328732491e-02 0.0000000000000000e+00  7.0866003632545471e-02 2.5709999725222588e-02 0.0000000000000000e+00  1.0576999746263027e-02 2.3676000535488129e-02 0.0000000000000000e+00  -1.5490000369027257e-03 1.0061999782919884e-02 0.0000000000000000e+00  1.0576999746263027e-02 2.3910000920295715e-02 0.0000000000000000e+00  -7.5399997876957059e-04 5.6839999742805958e-03 0.0000000000000000e+00  -1.4730000402778387e-03 3.0640000477433205e-03 0.0000000000000000e+00  -1.9480000482872128e-03 -5.0119999796152115e-03 0.0000000000000000e+00  -2.2330000065267086e-03 -2.6599998818710446e-04 0.0000000000000000e+00  -1.6880000475794077e-03 -1.1145999655127525e-02 0.0000000000000000e+00  -3.0370000749826431e-03 -1.4715000055730343e-02 0.0000000000000000e+00  -3.3529999200254679e-03 -8.5359998047351837e-03 0.0000000000000000e+00  1.0576999746263027e-02 2.3421000689268112e-02 0.0000000000000000e+00  -2.3680999875068665e-02 -1.0139999911189079e-02 0.0000000000000000e+00  -1.7015999183058739e-02 -3.4930000547319651e-03 0.0000000000000000e+00  6.5009999088943005e-03 1.9037999212741852e-02 0.0000000000000000e+00  8.7339999154210091e-03 2.1588999778032303e-02 0.0000000000000000e+00  4.4499998912215233e-03 1.8355999141931534e-02 0.0000000000000000e+00  7.1490001864731312e-03 2.1247999742627144e-02 0.0000000000000000e+00  3.4199999645352364e-03 1.7835000529885292e-02 0.0000000000000000e+00  8.3609996363520622e-03 1.9272999837994576e-02 0.0000000000000000e+00  6.3080000691115856e-03 1.6372999176383018e-02 0.0000000000000000e+00  7.1140001527965069e-03 1.6799999400973320e-02 0.0000000000000000e+00  -4.3095998466014862e-02 -3.1984999775886536e-02 0.0000000000000000e+00  -8.6044996976852417e-02 -9.0397998690605164e-02 0.0000000000000000e+00  -9.2494003474712372e-02 -9.4351999461650848e-02 0.0000000000000000e+00  -9.0020000934600830e-02 -8.7323002517223358e-02 0.0000000000000000e+00  -9.2202998697757721e-02 -8.4469996392726898e-02 0.0000000000000000e+00  -9.6373997628688812e-02 -9.1512002050876617e-02 0.0000000000000000e+00  -5.2613001316785812e-02 -7.5919002294540405e-02 0.0000000000000000e+00  -4.6941999346017838e-02 -7.7261000871658325e-02 0.0000000000000000e+00  -5.3778998553752899e-02 -8.5592001676559448e-02 0.0000000000000000e+00  -6.0559999197721481e-02 -9.2716999351978302e-02 0.0000000000000000e+00  -5.3261000663042068e-02 -9.4708003103733063e-02 0.0000000000000000e+00  -3.1674999743700027e-02 -2.7777999639511108e-02 0.0000000000000000e+00  -3.7523999810218811e-02 -3.7484001368284225e-02 0.0000000000000000e+00  -3.0076000839471817e-02 -2.8789000585675240e-02 0.0000000000000000e+00  -2.3253999650478363e-02 -2.0357999950647354e-02 0.0000000000000000e+00  -2.9959999956190586e-03 -2.3260000161826611e-03 0.0000000000000000e+00  -2.7389999013394117e-03 5.8100000023841858e-03 0.0000000000000000e+00  -3.8240000139921904e-03 4.5590000227093697e-03 0.0000000000000000e+00  -2.0769999828189611e-03 3.9639999158680439e-03 0.0000000000000000e+00  -2.2670000325888395e-03 4.5329998247325420e-03 0.0000000000000000e+00  -2.6189999189227819e-03 4.8850001767277718e-03 0.0000000000000000e+00  -2.9980000108480453e-03 5.2640000358223915e-03 0.0000000000000000e+00  -6.3999998383224010e-04 3.0700000934302807e-04 0.0000000000000000e+00  6.9000001531094313e-04 8.7400001939386129e-04 0.0000000000000000e+00  1.3539999490603805e-03 1.4159999554976821e-03 0.0000000000000000e+00  2.3700000019744039e-04 4.5099999988451600e-04 0.0000000000000000e+00  -1.6909999540075660e-03 2.8049999382346869e-03 0.0000000000000000e+00  -7.5599999399855733e-04 -2.3900000087451190e-04 0.0000000000000000e+00  1.5910000074654818e-03 1.4209999935701489e-03 0.0000000000000000e+00  -7.5599999399855733e-04 0.0000000000000000e+00 0.0000000000000000e+00  -7.5599999399855733e-04 -4.8399998922832310e-04 0.0000000000000000e+00  2.0059999078512192e-03 1.8129999516531825e-03 0.0000000000000000e+00  4.2719999328255653e-03 3.5439999774098396e-03 0.0000000000000000e+00  4.5560002326965332e-03 4.0819998830556870e-03 0.0000000000000000e+00  3.3489998895674944e-03 2.9569999314844608e-03 0.0000000000000000e+00  -6.3689998351037502e-03 1.2763000093400478e-02 0.0000000000000000e+00  -3.4549999982118607e-03 9.3440003693103790e-03 0.0000000000000000e+00  -7.0400000549852848e-03 1.0145000182092190e-02 0.0000000000000000e+00  1.0947000235319138e-02 1.1768000200390816e-02 0.0000000000000000e+00  9.6969995647668839e-03 1.5012999996542931e-02 0.0000000000000000e+00  7.6500000432133675e-03 1.5674000605940819e-02 0.0000000000000000e+00  7.7650002203881741e-03 1.5635000541806221e-02 0.0000000000000000e+00  9.1420002281665802e-03 1.4356000348925591e-02 0.0000000000000000e+00  1.0406999848783016e-02 1.3829000294208527e-02 0.0000000000000000e+00  5.6139999069273472e-03 1.5385000035166740e-02 0.0000000000000000e+00  4.4019999913871288e-03 1.3960000127553940e-02 0.0000000000000000e+00  3.0610000248998404e-03 1.6233000904321671e-02 0.0000000000000000e+00  2.2855000570416451e-02 6.3707001507282257e-02 0.0000000000000000e+00  1.9990000873804092e-02 5.7335000485181808e-02 0.0000000000000000e+00  1.8931999802589417e-02 6.1353001743555069e-02 0.0000000000000000e+00  3.8527000695466995e-02 8.6398996412754059e-02 0.0000000000000000e+00  3.4710001200437546e-02 8.3807997405529022e-02 0.0000000000000000e+00  3.6373000591993332e-02 8.7466999888420105e-02 0.0000000000000000e+00  5.0034999847412109e-02 1.0642600059509277e-01 0.0000000000000000e+00  5.0144001841545105e-02 1.0829699784517288e-01 0.0000000000000000e+00  4.9890000373125076e-02 1.0949199646711349e-01 0.0000000000000000e+00  3.7020001560449600e-02 4.1553001850843430e-02 0.0000000000000000e+00  -7.3549998924136162e-03 6.9591999053955078e-02 0.0000000000000000e+00  -1.5531999990344048e-02 6.8141996860504150e-02 0.0000000000000000e+00  -2.6889999862760305e-03 7.2440996766090393e-02 0.0000000000000000e+00  5.0869998522102833e-03 7.4190996587276459e-02 0.0000000000000000e+00  -1.9849999807775021e-03 7.0472002029418945e-02 0.0000000000000000e+00  2.3970000911504030e-03 7.0299997925758362e-02 0.0000000000000000e+00  3.0323000624775887e-02 8.7449997663497925e-02 0.0000000000000000e+00  3.3713001757860184e-02 8.7637998163700104e-02 0.0000000000000000e+00  3.4935999661684036e-02 9.0508997440338135e-02 0.0000000000000000e+00  3.8063000887632370e-02 9.0341001749038696e-02 0.0000000000000000e+00  1.9331000745296478e-02 7.4739001691341400e-02 0.0000000000000000e+00  1.1548999696969986e-02 7.3959000408649445e-02 0.0000000000000000e+00  1.3356000185012817e-02 7.7308997511863708e-02 0.0000000000000000e+00  9.3379998579621315e-03 7.7048003673553467e-02 0.0000000000000000e+00  9.8850000649690628e-03 7.8188002109527588e-02 0.0000000000000000e+00  1.7376000061631203e-02 8.0986000597476959e-02 0.0000000000000000e+00  1.8972000107169151e-02 7.7540002763271332e-02 0.0000000000000000e+00  -1.7841200530529022e-01 -5.6391000747680664e-02 0.0000000000000000e+00  -1.8093200027942657e-01 -6.1016000807285309e-02 0.0000000000000000e+00  -1.7002199590206146e-01 -6.3408002257347107e-02 0.0000000000000000e+00  -1.4858299493789673e-01 -5.0462998449802399e-02 0.0000000000000000e+00  -1.6221700608730316e-01 -4.8599999397993088e-02 0.0000000000000000e+00  -1.6112400591373444e-01 -5.5034998804330826e-02 0.0000000000000000e+00  -1.7485900223255157e-01 -5.0912000238895416e-02 0.0000000000000000e+00  -1.7389999702572823e-02 -3.9310999214649200e-02 0.0000000000000000e+00  -1.3313000090420246e-02 -3.0610000714659691e-02 0.0000000000000000e+00  -1.4481999911367893e-02 -3.1355999410152435e-02 0.0000000000000000e+00  -1.6790999099612236e-02 -3.9710998535156250e-02 0.0000000000000000e+00  -2.5837000459432602e-02 -6.6169001162052155e-02 0.0000000000000000e+00  -4.8450000584125519e-02 -1.0261200368404388e-01 0.0000000000000000e+00  -4.5876000076532364e-02 -1.0338500142097473e-01 0.0000000000000000e+00  -5.1447998732328415e-02 -1.1131600290536880e-01 0.0000000000000000e+00  -2.3581000044941902e-