<?xml version="1.0"?>
<VTKFile type="UnstructuredGrid"  version="0.1"  >
<UnstructuredGrid>
<Piece  NumberOfPoints="6340" NumberOfCells="12376">
<Points>
<DataArray  type="Float64"  NumberOfComponents="3"  format="ascii">-0.0195080004632473 0.02070399932563305 0  -0.02029399946331978 0.02140199951827526 0  -0.02050000056624413 0.02040000073611736 0  -0.02114699967205524 0.02122600004076958 0  -0.01972199976444244 0.01978000067174435 0  -0.01937099918723106 0.02158600091934204 0  -0.01995600014925003 0.02236399985849857 0  -0.01947700046002865 0.02316799946129322 0  -0.02050900086760521 0.02318399958312511 0  -0.01889399997889996 0.02230500057339668 0  -0.007782000117003918 0.01814199984073639 0  -0.008472999557852745 0.01897599920630455 0  -0.008798999711871147 0.01803600043058395 0  -0.009496999904513359 0.01890899986028671 0  -0.02616900019347668 0.07804299890995026 0  -0.02710499987006187 0.07856699824333191 0  -0.02729500085115433 0.07778000086545944 0  -0.02674500085413456 0.0714389979839325 0  -0.02738199941813946 0.07222999632358551 0  -0.02758100070059299 0.07134000211954117 0  -0.02833000011742115 0.0718500018119812 0  -0.01225799974054098 0.08859200030565262 0  -0.01315100025385618 0.08856400102376938 0  -0.01261099986732006 0.08782000094652176 0  -0.01988900080323219 0.08356299996376038 0  -0.01887300051748753 0.08362500369548798 0  -0.01933199912309647 0.0843999981880188 0  -0.01943299919366837 0.08278200030326843 0  -0.0224360004067421 0.02489800006151199 0  -0.02148599922657013 0.02489399909973145 0  -0.0219310000538826 0.02576600015163422 0  -0.02232999913394451 0.02664200030267239 0  -0.02289899997413158 0.02578300051391125 0  -0.02097300067543983 0.02576700039207935 0  -0.02050199918448925 0.02488400042057037 0  -0.01950000040233135 0.02486800029873848 0  -0.01998800039291382 0.02574699930846691 0  -0.02198499999940395 0.02400399930775166 0  -0.0230260007083416 0.02407200075685978 0  -0.02233999967575073 0.022749999538064 0  -0.02175999991595745 0.02201000042259693 0  -0.02150099910795689 0.02310499921441078 0  -0.02089600078761578 0.0222609993070364 0  -0.0159779991954565 0.02195299975574017 0  -0.01649600081145763 0.02107100002467632 0  -0.01543799974024296 0.02106899954378605 0  -0.01696399971842766 0.02205199934542179 0  -0.01797400042414665 0.02208700031042099 0  -0.0174770001322031 0.0229640007019043 0  0.03889700025320053 0.08122599869966507 0  0.03871899843215942 0.08034700155258179 0  0.03989300131797791 0.08058200031518936 0  0.04029899835586548 0.09213300049304962 0  0.04099800065159798 0.09246999770402908 0  0.03999200090765953 0.09297800064086914 0  0.02380900084972382 0.1011509969830513 0  0.02399099990725517 0.100271999835968 0  0.02479800023138523 0.1006520017981529 0  0.02289899997413158 0.101611003279686 0  0.02308000065386295 0.1005460023880005 0  -0.007172999903559685 0.09636600315570831 0  -0.006266000214964151 0.09648700058460236 0  -0.0068660001270473 0.0972139984369278 0  -0.005946999881416559 0.09734199941158295 0  -0.01772500015795231 0.09735500067472458 0  -0.01803899928927422 0.09671200066804886 0  -0.01704799942672253 0.09680800139904022 0  -0.01862799935042858 0.09753400087356567 0  -0.01481399964541197 0.1028209999203682 0  -0.01509399991482496 0.1036359965801239 0  -0.01555799972265959 0.1029549986124039 0  -0.01072499994188547 0.09538999944925308 0  -0.00991399958729744 0.09541500359773636 0  -0.01050299964845181 0.09615600109100342 0  -0.01153500005602837 0.09537400305271149 0  -0.01094700023531914 0.0946350023150444 0  -0.01175700034946203 0.09461899846792221 0  -0.01410599984228611 0.09753400087356567 0  -0.01465499959886074 0.09824299812316895 0  -0.01495299953967333 0.09750500321388245 0  -0.01293899957090616 0.09609200060367584 0  -0.01377400010824203 0.09607800096273422 0  -0.01317599974572659 0.09534499794244766 0  0.0107439998537302 0.09313099831342697 0  0.01169000007212162 0.09307599812746048 0  0.01111899968236685 0.09389600157737732 0  0.007414999883621931 0.07837700098752975 0  0.007931999862194061 0.07753899693489075 0  0.0083600003272295 0.07831999659538269 0  -0.007480000145733356 0.01727000065147877 0  -0.006653000134974718 0.01750200055539608 0  -0.008359000086784363 0.01713900081813335 0  -0.009277000091969967 0.01700199954211712 0  -0.01298999972641468 0.01688000001013279 0  -0.01325900014489889 0.01795700006186962 0  -0.01387500017881393 0.01706000044941902 0  -0.01241900026798248 0.01778499968349934 0  -0.01245400030165911 0.01880900003015995 0  -0.01158499997109175 0.01797300018370152 0  -0.0120059996843338 0.02173300087451935 0  -0.01249200012534857 0.02077499963343143 0  -0.01153200026601553 0.02082899957895279 0  -0.01105200033634901 0.01998200081288815 0  -0.01049700006842613 0.02082999981939793 0  -0.01201600022614002 0.01982899941504002 0  -0.01297799963504076 0.02173699997365475 0  -0.01443600002676249 0.02094700001180172 0  -0.01495099999010563 0.0219080001115799 0  -0.01395499985665083 0.02180800028145313 0  -0.00898400042206049 0.01985899917781353 0  -0.01095400005578995 0.03071399964392185 0  -0.01146499998867512 0.02984200045466423 0  -0.01044700015336275 0.02980099990963936 0  -0.005365999881178141 0.02955899946391582 0  -0.005872000008821487 0.03048199974000454 0  -0.006378000136464834 0.02961299940943718 0  -0.008004999719560146 0.01993799954652786 0  -0.00547999981790781 0.01942799985408783 0  -0.006471999920904636 0.01924999989569187 0  -0.005681999959051609 0.01858199946582317 0  -0.005758999846875668 0.01775299943983555 0  -0.004769999999552965 0.01803000085055828 0  0.04228800162672997 0.08833800256252289 0  0.04310499876737595 0.08788499981164932 0  0.04280100017786026 0.08893900364637375 0  0.04182200133800507 0.08908399939537048 0  0.01634499989449978 0.05909600108861923 0  0.01737000048160553 0.0590130016207695 0  0.01689399965107441 0.05989800021052361 0  0.02993600070476532 0.04431800171732903 0  0.03041400015354156 0.04327699914574623 0  0.03086899966001511 0.04400699958205223 0  0.03192099928855896 0.04849100112915039 0  0.0328189991414547 0.04782500118017197 0  0.03312399983406067 0.04855599999427795 0  0.03155900165438652 0.05187299847602844 0  0.03064800053834915 0.05196399986743927 0  0.03119100071489811 0.05104300007224083 0  0.03079799935221672 0.05023999884724617 0  0.03177500143647194 0.05012499913573265 0  0.03024099953472614 0.05114800110459328 0  0.02970699965953827 0.05205700173974037 0  0.02980400063097477 0.05036899819970131 0  0.02930100075900555 0.04960799962282181 0  0.02880199998617172 0.05048099905252457 0  0.02827999927103519 0.04970499873161316 0  0.03979299962520599 0.09063299745321274 0  0.03881200030446053 0.09069299697875977 0  0.03939399868249893 0.08988600224256516 0  0.03843500092625618 0.08991499990224838 0  0.008364000357687473 0.02478400059044361 0  0.009122000075876713 0.02525199949741364 0  0.008364999666810036 0.02584899961948395 0  0.009192000143229961 0.02621199935674667 0  0.02779100090265274 0.0505790002644062 0  0.02378600090742111 0.05259200185537338 0  0.02330500073730946 0.05347400158643723 0  0.02276399917900562 0.0526680015027523 0  0.02431700006127357 0.05339600145816803 0  0.03013800084590912 0.05286800116300583 0  0.019208999350667 0.03579400107264519 0  0.01832799986004829 0.03564599901437759 0  0.01875099912285805 0.03476300090551376 0  0.01369099970906973 0.04096600040793419 0  0.01274800021201372 0.0409649983048439 0  0.01322000008076429 0.04008200019598007 0  0.01227600034326315 0.04008200019598007 0  0.01180399954319 0.04096399992704391 0  0.01180300023406744 0.03920000046491623 0  0.01274900045245886 0.03920099884271622 0  0.01321899984031916 0.04184800013899803 0  -0.02820800058543682 0.07271300256252289 0  -0.02709599956870079 0.07304699718952179 0  -0.0280969999730587 0.07350199669599533 0  -0.02640599943697453 0.07232499867677689 0  -0.02601700089871883 0.07314500212669373 0  -0.02497199922800064 0.07324600219726562 0  -0.02545999921858311 0.07400500029325485 0  -0.02438499964773655 0.07249800115823746 0  -0.02394800074398518 0.0733330026268959 0  -0.0244740005582571 0.07409100234508514 0  -0.02841000072658062 0.07095299661159515 0  -0.01878000050783157 0.08522599935531616 0  -0.01978800073266029 0.08517199754714966 0  -0.01792199909687042 0.09372500330209732 0  -0.01881499961018562 0.09373600035905838 0  -0.01825300045311451 0.09298399835824966 0  -0.01914200000464916 0.09299899637699127 0  -0.01859300024807453 0.09223800152540207 0  -0.01714899949729443 0.0960799977183342 0  -0.01632199995219707 0.09608399868011475 0  -0.01614399999380112 0.09681200236082077 0  -0.01352700032293797 0.08778399974107742 0  -0.01143100019544363 0.08166400343179703 0  -0.01041899994015694 0.08172699809074402 0  -0.01088900025933981 0.08249600231647491 0  -0.01038799993693829 0.08331099897623062 0  -0.009902000427246094 0.08254899829626083 0  -0.01559299975633621 0.07973500341176987 0  -0.01613100059330463 0.07886700332164764 0  -0.01512399967759848 0.07893899828195572 0  -0.01411699969321489 0.07901199907064438 0  -0.01463999971747398 0.07814499735832214 0  -0.01841700077056885 0.08284799754619598 0  -0.01796800084412098 0.08205600082874298 0  -0.01898499950766563 0.0819849967956543 0  -0.02000300027430058 0.08191599696874619 0  -0.02503200061619282 0.07485699653625488 0  -0.02556299977004528 0.07727000117301941 0  -0.02511700056493282 0.07812000066041946 0  -0.02338900044560432 0.02477199956774712 0  -0.02373999916017056 0.02545000053942204 0  -0.02398199960589409 0.02611899934709072 0  -0.02424300089478493 0.0268389992415905 0  -0.02326099947094917 0.02669399976730347 0  -0.02000300027430058 0.02402099967002869 0  -0.01899099908769131 0.02399300038814545 0  -0.02101800031960011 0.02401700057089329 0  -0.02267299965023994 0.0233910009264946 0  -0.01743300072848797 0.01823000051081181 0  -0.01705200038850307 0.01899500004947186 0  -0.01823999918997288 0.01860000006854534 0  -0.01660499908030033 0.01785000041127205 0  -0.01844299957156181 0.02310400083661079 0  -0.0164739
[...]
<PointData  Vectors="velocity"> 
<DataArray  type="Float64"  Name="velocity"  NumberOfComponents="3" format="ascii">7.0600002072751522e-04 6.9800001801922917e-04 0.0000000000000000e+00  5.7400000514462590e-04 5.8599998010322452e-04 0.0000000000000000e+00  -2.2670000325888395e-03 1.5109999803826213e-03 0.0000000000000000e+00  -2.2670000325888395e-03 1.5109999803826213e-03 0.0000000000000000e+00  -2.5269999168813229e-03 1.2509999796748161e-03 0.0000000000000000e+00  1.4779999619349837e-03 1.3899999903514981e-03 0.0000000000000000e+00  1.4819999923929572e-03 1.4189999783411622e-03 0.0000000000000000e+00  2.3930000606924295e-03 2.2070000413805246e-03 0.0000000000000000e+00  1.4659999869763851e-03 1.4519999967887998e-03 0.0000000000000000e+00  2.4600001052021980e-03 2.2070000413805246e-03 0.0000000000000000e+00  4.2090001516044140e-03 3.9389999583363533e-03 0.0000000000000000e+00  7.1709998883306980e-03 5.9799998998641968e-03 0.0000000000000000e+00  4.6089999377727509e-03 4.3359999544918537e-03 0.0000000000000000e+00  6.4949998632073402e-03 5.7580000720918179e-03 0.0000000000000000e+00  -1.1820000363513827e-03 1.0288000106811523e-02 0.0000000000000000e+00  4.8000002279877663e-03 1.6620999202132225e-02 0.0000000000000000e+00  5.0349999219179153e-03 1.6620999202132225e-02 0.0000000000000000e+00  -3.3300000359304249e-04 6.8930000998079777e-03 0.0000000000000000e+00  -8.2900002598762512e-04 1.0777999646961689e-02 0.0000000000000000e+00  -5.1599997095763683e-04 1.1733000166714191e-02 0.0000000000000000e+00  5.2889999933540821e-03 1.7377000302076340e-02 0.0000000000000000e+00  -3.7448998540639877e-02 -3.1863000243902206e-02 0.0000000000000000e+00  -3.3434998244047165e-02 -2.6444999501109123e-02 0.0000000000000000e+00  -3.9629001170396805e-02 -3.3342000097036362e-02 0.0000000000000000e+00  -1.8215000629425049e-02 -1.1195999570190907e-02 0.0000000000000000e+00  -2.3174999281764030e-02 -1.7452999949455261e-02 0.0000000000000000e+00  -1.9779000431299210e-02 -1.0808000341057777e-02 0.0000000000000000e+00  -2.1068999543786049e-02 -1.7803000286221504e-02 0.0000000000000000e+00  3.9500001003034413e-04 6.8100000498816371e-04 0.0000000000000000e+00  1.1650000233203173e-03 1.4230000087991357e-03 0.0000000000000000e+00  5.5400002747774124e-04 1.1269999668002129e-03 0.0000000000000000e+00  1.6199999663513154e-04 1.1159999994561076e-03 0.0000000000000000e+00  1.5199999324977398e-04 6.5200001699849963e-04 0.0000000000000000e+00  1.3449999969452620e-03 1.8639999907463789e-03 0.0000000000000000e+00  1.9369999645277858e-03 2.0910000894218683e-03 0.0000000000000000e+00  2.8570001013576984e-03 2.7900000568479300e-03 0.0000000000000000e+00  2.2390000522136688e-03 2.5679999962449074e-03 0.0000000000000000e+00  7.2100001852959394e-04 8.4599998081102967e-04 0.0000000000000000e+00  -2.6360000483691692e-03 1.8810000037774444e-03 0.0000000000000000e+00  -2.2670000325888395e-03 1.5109999803826213e-03 0.0000000000000000e+00  -2.2670000325888395e-03 1.5109999803826213e-03 0.0000000000000000e+00  6.9600000279024243e-04 7.5499998638406396e-04 0.0000000000000000e+00  6.6899997182190418e-04 6.9399998756125569e-04 0.0000000000000000e+00  5.6170001626014709e-03 4.4300002045929432e-03 0.0000000000000000e+00  4.3100002221763134e-03 3.4890000242739916e-03 0.0000000000000000e+00  5.6579997763037682e-03 4.4289999641478062e-03 0.0000000000000000e+00  4.4339997693896294e-03 3.6170000676065683e-03 0.0000000000000000e+00  3.2830000855028629e-03 2.8119999915361404e-03 0.0000000000000000e+00  4.4040000066161156e-03 3.6379999946802855e-03 0.0000000000000000e+00  2.8951000422239304e-02 7.4087999761104584e-02 0.0000000000000000e+00  2.7638999745249748e-02 7.4072003364562988e-02 0.0000000000000000e+00  2.4140000343322754e-02 2.5448000058531761e-02 0.0000000000000000e+00  8.4539996460080147e-03 5.5744998157024384e-02 0.0000000000000000e+00  6.8769999779760838e-03 5.1741998642683029e-02 0.0000000000000000e+00  8.3099998300895095e-04 5.2336998283863068e-02 0.0000000000000000e+00  -1.3803799450397491e-01 -2.8937000781297684e-02 0.0000000000000000e+00  -1.2909999489784241e-01 -2.6239000260829926e-02 0.0000000000000000e+00  -1.3254299759864807e-01 -2.3029999807476997e-02 0.0000000000000000e+00  -1.4204500615596771e-01 -3.3766001462936401e-02 0.0000000000000000e+00  -1.3161300122737885e-01 -3.1373001635074615e-02 0.0000000000000000e+00  -2.5545999407768250e-02 -4.3012998998165131e-02 0.0000000000000000e+00  -2.9130000621080399e-02 -4.9890000373125076e-02 0.0000000000000000e+00  -2.7357000857591629e-02 -4.2144000530242920e-02 0.0000000000000000e+00  -3.1215999275445938e-02 -4.8914000391960144e-02 0.0000000000000000e+00  8.5960002616047859e-03 1.9758999347686768e-02 0.0000000000000000e+00  8.6430003866553307e-03 1.9803000614047050e-02 0.0000000000000000e+00  6.7119998857378960e-03 1.7131999135017395e-02 0.0000000000000000e+00  1.4619000256061554e-02 2.4703999981284142e-02 0.0000000000000000e+00  8.5119996219873428e-03 1.7917999997735023e-02 0.0000000000000000e+00  1.5344999730587006e-02 2.7953999117016792e-02 0.0000000000000000e+00  1.5614000149071217e-02 2.7953999117016792e-02 0.0000000000000000e+00  -1.3028999790549278e-02 -1.8107999116182327e-02 0.0000000000000000e+00  -1.5603000298142433e-02 -2.4379000067710876e-02 0.0000000000000000e+00  -1.3923999853432178e-02 -1.7567999660968781e-02 0.0000000000000000e+00  -1.0588999837636948e-02 -1.2746999971568584e-02 0.0000000000000000e+00  -1.3981999829411507e-02 -1.9012000411748886e-02 0.0000000000000000e+00  -1.1222000233829021e-02 -1.3534000143408775e-02 0.0000000000000000e+00  9.9999997473787516e-05 7.5699998997151852e-03 0.0000000000000000e+00  2.1820000838488340e-03 1.1187000200152397e-02 0.0000000000000000e+00  2.4359999224543571e-03 1.1127999983727932e-02 0.0000000000000000e+00  -6.5759997814893723e-03 -1.8090000376105309e-03 0.0000000000000000e+00  -4.2690001428127289e-03 2.4810000322759151e-03 0.0000000000000000e+00  -5.9239999391138554e-03 -2.2179998923093081e-03 0.0000000000000000e+00  -5.9080999344587326e-02 -6.7266002297401428e-02 0.0000000000000000e+00  -5.7930000126361847e-02 -6.1135001480579376e-02 0.0000000000000000e+00  -6.3777998089790344e-02 -6.9034002721309662e-02 0.0000000000000000e+00  -5.0935998558998108e-02 5.7700001634657383e-03 0.0000000000000000e+00  -3.6536000669002533e-02 1.2643000110983849e-02 0.0000000000000000e+00  -4.6737000346183777e-02 1.4762000180780888e-02 0.0000000000000000e+00  -3.7779998965561390e-03 0.0000000000000000e+00 0.0000000000000000e+00  -4.0079997852444649e-03 0.0000000000000000e+00 0.0000000000000000e+00  -3.7779998965561390e-03 0.0000000000000000e+00 0.0000000000000000e+00  -3.7779998965561390e-03 0.0000000000000000e+00 0.0000000000000000e+00  -3.0219999607652426e-03 0.0000000000000000e+00 0.0000000000000000e+00  2.5549998972564936e-03 1.7790000420063734e-03 0.0000000000000000e+00  -3.0219999607652426e-03 0.0000000000000000e+00 0.0000000000000000e+00  2.8750000055879354e-03 2.0230000372976065e-03 0.0000000000000000e+00  4.2940001003444195e-03 3.3690000418573618e-03 0.0000000000000000e+00  3.6899999249726534e-03 2.8560000937432051e-03 0.0000000000000000e+00  9.0140001848340034e-03 7.8870002180337906e-03 0.0000000000000000e+00  7.4689998291432858e-03 6.2389997765421867e-03 0.0000000000000000e+00  7.8469999134540558e-03 6.9639999419450760e-03 0.0000000000000000e+00  6.4389999024569988e-03 5.9050000272691250e-03 0.0000000000000000e+00  7.7680000104010105e-03 7.4140001088380814e-03 0.0000000000000000e+00  5.9369998052716255e-03 5.0639999099075794e-03 0.0000000000000000e+00  8.5929995402693748e-03 7.1040000766515732e-03 0.0000000000000000e+00  6.4610000699758530e-03 5.0269998610019684e-03 0.0000000000000000e+00  6.9690002128481865e-03 5.4359999485313892e-03 0.0000000000000000e+00  8.0040004104375839e-03 6.3519999384880066e-03 0.0000000000000000e+00  7.5079998932778835e-03 6.7759999074041843e-03 0.0000000000000000e+00  1.0983999818563461e-02 1.1102999560534954e-02 0.0000000000000000e+00  9.0979998931288719e-03 1.2636000290513039e-02 0.0000000000000000e+00  1.2058000080287457e-02 1.2569000013172626e-02 0.0000000000000000e+00  2.7552999556064606e-02 8.0709997564554214e-03 0.0000000000000000e+00  2.9324000701308250e-02 6.8239998072385788e-03 0.0000000000000000e+00  2.4620000272989273e-02 8.0949999392032623e-03 0.0000000000000000e+00  8.0629996955394745e-03 6.4710001461207867e-03 0.0000000000000000e+00  1.0281999595463276e-02 4.1450001299381256e-03 0.0000000000000000e+00  8.8409995660185814e-03 4.7619999386370182e-03 0.0000000000000000e+00  5.5309999734163284e-03 2.6640000287443399e-03 0.0000000000000000e+00  -4.2570000514388084e-03 0.0000000000000000e+00 0.0000000000000000e+00  -4.5329998247325420e-03 0.0000000000000000e+00 0.0000000000000000e+00  2.6848999783396721e-02 5.9806000441312790e-02 0.0000000000000000e+00  2.5856999680399895e-02 5.5837001651525497e-02 0.0000000000000000e+00  2.4868000298738480e-02 5.6462999433279037e-02 0.0000000000000000e+00  2.5454999879002571e-02 6.0580000281333923e-02 0.0000000000000000e+00  4.8016000539064407e-02 4.2025998234748840e-02 0.0000000000000000e+00  4.5775998383760452e-02 5.1511000841856003e-02 0.0000000000000000e+00  4.6622999012470245e-02 4.9049999564886093e-02 0.0000000000000000e+00  1.9477000460028648e-02 2.5118000805377960e-02 0.0000000000000000e+00  6.2440000474452972e-03 9.6209999173879623e-03 0.0000000000000000e+00  5.7540000416338444e-03 1.0111999697983265e-02 0.0000000000000000e+00  1.8163999542593956e-02 3.5962000489234924e-02 0.0000000000000000e+00  5.0240000709891319e-03 1.2353000231087208e-02 0.0000000000000000e+00  4.7869998961687088e-03 1.2589000165462494e-02 0.0000000000000000e+00  2.1012999117374420e-02 5.7147998362779617e-02 0.0000000000000000e+00  2.4911999702453613e-02 6.3679002225399017e-02 0.0000000000000000e+00  2.2841000929474831e-02 5.4905001074075699e-02 0.0000000000000000e+00  2.4736000224947929e-02 5.2788000553846359e-02 0.0000000000000000e+00  2.0049000158905983e-02 4.5899000018835068e-02 0.0000000000000000e+00  2.7279000729322433e-02 6.1526998877525330e-02 0.0000000000000000e+00  2.9151000082492828e-02 6.9839000701904297e-02 0.0000000000000000e+00  2.9743999242782593e-02 5.9510000050067902e-02 0.0000000000000000e+00  3.2363999634981155e-02 5.7794999331235886e-02 0.0000000000000000e+00  3.4951999783515930e-02 6.5476000308990479e-02 0.0000000000000000e+00  3.7873998284339905e-02 6.3560999929904938e-02 0.0000000000000000e+00  1.9020000472664833e-02 6.3900999724864960e-02 0.0000000000000000e+00  1.8632000312209129e-02 6.6556997597217560e-02 0.0000000000000000e+00  2.3796999827027321e-02 6.7704997956752777e-02 0.0000000000000000e+00  2.3969000205397606e-02 7.0372000336647034e-02 0.0000000000000000e+00  -1.0420000180602074e-03 4.0119998157024384e-03 0.0000000000000000e+00  -5.3800002206116915e-04 4.2639998719096184e-03 0.0000000000000000e+00  1.0874000377953053e-02 6.5609999001026154e-03 0.0000000000000000e+00  1.1888000182807446e-02 7.2249998338520527e-03 0.0000000000000000e+00  4.0063999593257904e-02 7.0283003151416779e-02 0.0000000000000000e+00  5.2574001252651215e-02 8.2533001899719238e-02 0.0000000000000000e+00  5.1065001636743546e-02 8.3417996764183044e-02 0.0000000000000000e+00  5.4946999996900558e-02 7.9244002699851990e-02 0.0000000000000000e+00  4.8337001353502274e-02 8.6286000907421112e-02 0.0000000000000000e+00  2.6365000754594803e-02 7.1896001696586609e-02 0.0000000000000000e+00  3.3631999045610428e-02 2.2091999650001526e-02 0.0000000000000000e+00  3.6161001771688461e-02 2.2655000910162926e-02 0.0000000000000000e+00  2.9707999899983406e-02 1.9029999151825905e-02 0.0000000000000000e+00  7.2332002222537994e-02 3.0439000576734543e-02 0.0000000000000000e+00  7.2981998324394226e-02 2.8251999989151955e-02 0.0000000000000000e+00  7.0347003638744354e-02 2.9083000496029854e-02 0.0000000000000000e+00  7.0872001349925995e-02 2.7511000633239746e-02 0.0000000000000000e+00  7.3311001062393188e-02 2.6471000164747238e-02 0.0000000000000000e+00  6.8511001765727997e-02 2.6705000549554825e-02 0.0000000000000000e+00  6.7592002451419830e-02 2.7860999107360840e-02 0.0000000000000000e+00  7.4256002902984619e-02 2.9154999181628227e-02 0.0000000000000000e+00  5.0329999066889286e-03 1.7121000215411186e-02 0.0000000000000000e+00  -1.3279999839141965e-03 9.5030004158616066e-03 0.0000000000000000e+00  4.7989999875426292e-03 1.6886999830603600e-02 0.0000000000000000e+00  -4.7400000039488077e-04 5.4700002074241638e-03 0.0000000000000000e+00  -9.7100000130012631e-04 3.5999999381601810e-03 0.0000000000000000e+00  -1.3749999925494194e-03 -3.7090000696480274e-03 0.0000000000000000e+00  -1.8589999526739120e-03 4.4000000343658030e-04 0.0000000000000000e+00  -1.0479999473318458e-03 -8.9959995821118355e-03 0.0000000000000000e+00  -2.1659999620169401e-03 -1.1866999790072441e-02 0.0000000000000000e+00  -2.4840000551193953e-03 -6.4779999665915966e-03 0.0000000000000000e+00  5.0249998457729816e-03 1.7377000302076340e-02 0.0000000000000000e+00  -2.0713999867439270e-02 -1.0231999680399895e-02 0.0000000000000000e+00  -1.5809999778866768e-02 -4.6210000291466713e-03 0.0000000000000000e+00  4.5889997854828835e-03 1.4901000075042248e-02 0.0000000000000000e+00  6.8359998986124992e-03 1.7525000497698784e-02 0.0000000000000000e+00  2.5500000920146704e-03 1.4158999547362328e-02 0.0000000000000000e+00  4.8000002279877663e-03 1.6986999660730362e-02 0.0000000000000000e+00  2.5520001072436571e-03 1.3825000263750553e-02 0.0000000000000000e+00  4.6540000475943089e-03 1.6149999573826790e-02 0.0000000000000000e+00  2.6040000375360250e-03 1.3400999829173088e-02 0.0000000000000000e+00  4.5520002022385597e-03 1.4349999837577343e-02 0.0000000000000000e+00  -3.5254999995231628e-02 -2.7767999097704887e-02 0.0000000000000000e+00  -7.4395000934600830e-02 -7.8313998878002167e-02 0.0000000000000000e+00  -8.0550000071525574e-02 -8.1707999110221863e-02 0.0000000000000000e+00  -7.7831000089645386e-02 -7.5296998023986816e-02 0.0000000000000000e+00  -7.9520002007484436e-02 -7.2291001677513123e-02 0.0000000000000000e+00  -8.3835996687412262e-02 -7.8685998916625977e-02 0.0000000000000000e+00  -4.5072000473737717e-02 -6.5839998424053192e-02 0.0000000000000000e+00  -4.0332000702619553e-02 -6.7022003233432770e-02 0.0000000000000000e+00  -4.6339999884366989e-02 -7.4368000030517578e-02 0.0000000000000000e+00  -5.2370999008417130e-02 -8.0871999263763428e-02 0.0000000000000000e+00  -4.6004999428987503e-02 -8.2474000751972198e-02 0.0000000000000000e+00  -2.6505999267101288e-02 -2.4672999978065491e-02 0.0000000000000000e+00  -3.1966000795364380e-02 -3.2946001738309860e-02 0.0000000000000000e+00  -2.6203000918030739e-02 -2.5599999353289604e-02 0.0000000000000000e+00  -2.0569000393152237e-02 -1.8414000049233437e-02 0.0000000000000000e+00  -2.4739999789744616e-03 -1.2240000069141388e-03 0.0000000000000000e+00  -2.0850000437349081e-03 5.8599999174475670e-03 0.0000000000000000e+00  -2.9710000380873680e-03 4.5019998215138912e-03 0.0000000000000000e+00  -2.8319999109953642e-03 2.0769999828189611e-03 0.0000000000000000e+00  -3.0219999607652426e-03 2.2670000325888395e-03 0.0000000000000000e+00  -3.1979999039322138e-03 2.4429999757558107e-03 0.0000000000000000e+00  -3.3879999537020922e-03 2.6320000179111958e-03 0.0000000000000000e+00  -5.9000001783715561e-05 7.5900001684203744e-04 0.0000000000000000e+00  2.2460001055151224e-03 2.1820000838488340e-03 0.0000000000000000e+00  3.2069999724626541e-03 2.8969999402761459e-03 0.0000000000000000e+00  1.3980000512674451e-03 1.4740000478923321e-03 0.0000000000000000e+00  -2.4459999985992908e-03 1.6909999540075660e-03 0.0000000000000000e+00  -3.0219999607652426e-03 5.1599997095763683e-04 0.0000000000000000e+00  1.4830000000074506e-03 1.3050000416114926e-03 0.0000000000000000e+00  -3.0219999607652426e-03 7.5599999399855733e-04 0.0000000000000000e+00  -3.0219999607652426e-03 2.7099999715574086e-04 0.0000000000000000e+00  3.4080001059919596e-03 2.9559999238699675e-03 0.0000000000000000e+00  5.5869999341666698e-03 4.4479998759925365e-03 0.0000000000000000e+00  6.5899998880922794e-03 5.2680000662803650e-03 0.0000000000000000e+00  5.4150000214576721e-03 4.3930001556873322e-03 0.0000000000000000e+00  7.7039999887347221e-03 1.0945999994874001e-02 0.0000000000000000e+00  9.7350003197789192e-03 8.8969999924302101e-03 0.0000000000000000e+00  6.0200002044439316e-03 8.5789998993277550e-03 0.0000000000000000e+00  9.3069998547434807e-03 8.6139999330043793e-03 0.0000000000000000e+00  1.1332999914884567e-02 1.1408000253140926e-02 0.0000000000000000e+00  1.1783000081777573e-02 1.2210000306367874e-02 0.0000000000000000e+00  1.1548999696969986e-02 1.2323999777436256e-02 0.0000000000000000e+00  1.0995999909937382e-02 1.0784000158309937e-02 0.0000000000000000e+00  1.0253000073134899e-02 1.0060999542474747e-02 0.0000000000000000e+00  1.2051999568939209e-02 1.2384000234305859e-02 0.0000000000000000e+00  1.2719999998807907e-02 1.2071999721229076e-02 0.0000000000000000e+00  1.1726000346243382e-02 1.3264000415802002e-02 0.0000000000000000e+00  1.9616000354290009e-02 5.2315998822450638e-02 0.0000000000000000e+00  1.7596000805497169e-02 4.6362001448869705e-02 0.0000000000000000e+00  1.5006000176072121e-02 4.8487000167369843e-02 0.0000000000000000e+00  3.3013999462127686e-02 7.4854001402854919e-02 0.0000000000000000e+00  3.0641999095678329e-02 7.1686998009681702e-02 0.0000000000000000e+00  3.1191000714898109e-02 7.4390999972820282e-02 0.0000000000000000e+00  3.8279000669717789e-02 9.3598999083042145e-02 0.0000000000000000e+00  3.8665000349283218e-02 9.5613002777099609e-02 0.0000000000000000e+00  3.9370998740196228e-02 9.5980003476142883e-02 0.0000000000000000e+00  2.3421000689268112e-02 2.5686999782919884e-02 0.0000000000000000e+00  -1.2866999953985214e-02 5.1157001405954361e-02 0.0000000000000000e+00  -2.0484000444412231e-02 4.9720000475645065e-02 0.0000000000000000e+00  -8.6460001766681671e-03 5.4983999580144882e-02 0.0000000000000000e+00  -1.3610000023618340e-03 5.6682001799345016e-02 0.0000000000000000e+00  -7.8859999775886536e-03 5.1963001489639282e-02 0.0000000000000000e+00  -3.1930000986903906e-03 5.2607998251914978e-02 0.0000000000000000e+00  2.3995999246835709e-02 7.2356998920440674e-02 0.0000000000000000e+00  2.8421999886631966e-02 7.3877997696399689e-02 0.0000000000000000e+00  2.8655000030994415e-02 7.5762003660202026e-02 0.0000000000000000e+00  3.2005999237298965e-02 7.7197998762130737e-02 0.0000000000000000e+00  1.3561000116169453e-02 5.9703998267650604e-02 0.0000000000000000e+00  5.5809998884797096e-03 5.7661000639200211e-02 0.0000000000000000e+00  6.6630002111196518e-03 6.0899000614881516e-02 0.0000000000000000e+00  2.4570000823587179e-03 6.0692999511957169e-02 0.0000000000000000e+00  2.9410000424832106e-03 6.2633998692035675e-02 0.0000000000000000e+00  1.0621000081300735e-02 6.5461002290248871e-02 0.0000000000000000e+00  1.2949000112712383e-02 6.2387999147176743e-02 0.0000000000000000e+00  -1.4783999323844910e-01 -4.2048998177051544e-02 0.0000000000000000e+00  -1.4931499958038330e-01 -4.5143999159336090e-02 0.0000000000000000e+00  -1.4216800034046173e-01 -4.6222999691963196e-02 0.0000000000000000e+00  -1.2950800359249115e-01 -3.6033000797033310e-02 0.0000000000000000e+00  -1.3749399781227112e-01 -3.6120999604463577e-02 0.0000000000000000e+00  -1.3674399256706238e-01 -3.9969000965356827e-02 0.0000000000000000e+00  -1.4585199952125549e-01 -3.8435999304056168e-02 0.0000000000000000e+00  -1.9363999366760254e-02 -2.9736999422311783e-02 0.0000000000000000e+00  -1.7426000908017159e-02 -2.2765999659895897e-02 0.0000000000000000e+00  -1.6582999378442764e-02 -2.3661000654101372e-02 0.0000000000000000e+00  -1.8254000693559647e-02 -3.0590999871492386e-02 0.0000000000000000e+00  -2.6974000036716461e-02 -5.0583001226186752e-02 0.0000000000000000e+00  -5.0471000373363495e-02 -7.5917996466159821e-02 0.0000000000000000e+00  -4.8257999122142792e-02 -7.7367000281810760e-02 0.0000000000000000e+00  -5.4425001144409180e-02 -8.2754999399185181e-02 0.0000000000000000e+00  -2.6664000004529953e-02 -4.07480001449584