<?xml version="1.0"?>
<VTKFile type="UnstructuredGrid"  version="0.1"  >
<UnstructuredGrid>
<Piece  NumberOfPoints="6340" NumberOfCells="12376">
<Points>
<DataArray  type="Float64"  NumberOfComponents="3"  format="ascii">-0.01942900009453297 0.02073399908840656 0  -0.02017400041222572 0.02140199951827526 0  -0.02037999965250492 0.02040999941527843 0  -0.02101599983870983 0.02119399979710579 0  -0.01964999921619892 0.01981399953365326 0  -0.01928200013935566 0.02160900086164474 0  -0.01983599923551083 0.02236000075936317 0  -0.01936000026762486 0.02316899970173836 0  -0.02037999965250492 0.02314200066030025 0  -0.01881499961018562 0.02233299985527992 0  -0.008500000461935997 0.01803000085055828 0  -0.009123999625444412 0.01889500021934509 0  -0.009452999569475651 0.01795700006186962 0  -0.01008300017565489 0.01886199973523617 0  -0.0262640006840229 0.07879699766635895 0  -0.02723200060427189 0.07935000211000443 0  -0.02737499959766865 0.07855699956417084 0  -0.02686600014567375 0.07196199893951416 0  -0.02747200056910515 0.07280399650335312 0  -0.02770300023257732 0.07187800109386444 0  -0.02842999994754791 0.07242999970912933 0  -0.01306799985468388 0.08956500142812729 0  -0.01404699962586164 0.08951199799776077 0  -0.01348999980837107 0.08870100229978561 0  -0.02061299979686737 0.08420799672603607 0  -0.01961399987339973 0.0842519998550415 0  -0.02017500065267086 0.08505800366401672 0  -0.02005299925804138 0.08340000361204147 0  -0.02233099937438965 0.02475200034677982 0  -0.02134899981319904 0.02478200010955334 0  -0.0218260008841753 0.02562499977648258 0  -0.02225599996745586 0.02647300064563751 0  -0.02282699942588806 0.02560799941420555 0  -0.0208359993994236 0.02565900050103664 0  -0.02036700025200844 0.02481099963188171 0  -0.01937700062990189 0.02483700029551983 0  -0.01985700055956841 0.02567999996244907 0  -0.02184700034558773 0.02388699911534786 0  -0.0229250006377697 0.02391799911856651 0  -0.02219000086188316 0.02263999916613102 0  -0.02161999978125095 0.02193699963390827 0  -0.0213600005954504 0.02302299998700619 0  -0.02076499909162521 0.02222000062465668 0  -0.01605799980461597 0.02203099988400936 0  -0.01656500063836575 0.02114900015294552 0  -0.01557399984449148 0.02115100063383579 0  -0.01697999984025955 0.02212600037455559 0  -0.01794200018048286 0.02213799953460693 0  -0.01745199970901012 0.02301700040698051 0  0.04406800121068954 0.08314800262451172 0  0.04371299967169762 0.08224199712276459 0  0.04507799819111824 0.08254300057888031 0  0.04679900035262108 0.09474699944257736 0  0.0476280003786087 0.09513799846172333 0  0.04654999822378159 0.09563300013542175 0  0.02919699996709824 0.1035929992794991 0  0.02930100075900555 0.1026659980416298 0  0.03025799989700317 0.1031069979071617 0  0.02822200022637844 0.1040410026907921 0  0.02830200083553791 0.1029160022735596 0  -0.005681000184267759 0.09870699793100357 0  -0.004645999986678362 0.09876900166273117 0  -0.005210999865084887 0.09959600120782852 0  -0.004172000102698803 0.09965399652719498 0  -0.01823800057172775 0.09932000190019608 0  -0.01869400031864643 0.0985649973154068 0  -0.01753400079905987 0.09872400015592575 0  -0.01925699971616268 0.099481001496315 0  -0.01359099987894297 0.1059119999408722 0  -0.01375799998641014 0.1068409979343414 0  -0.01447799988090992 0.1060289964079857 0  -0.01017399970442057 0.09751699864864349 0  -0.009167999960482121 0.09759499877691269 0  -0.009731999598443508 0.09842199832201004 0  -0.01117500010877848 0.09743300080299377 0  -0.01061000023037195 0.0966079980134964 0  -0.01161099970340729 0.09652499854564667 0  -0.01386999990791082 0.09977500140666962 0  -0.01439199969172478 0.1005669981241226 0  -0.01490600034594536 0.09967800229787827 0  -0.01274599973112345 0.09816700220108032 0  -0.01375999953597784 0.09809000045061111 0  -0.01318200025707483 0.09727399796247482 0  0.01348499953746796 0.09446600079536438 0  0.01454799994826317 0.09444999694824219 0  0.0139979999512434 0.09529600292444229 0  0.00800000037997961 0.07861500233411789 0  0.008504999801516533 0.07774499803781509 0  0.009061999619007111 0.07859800010919571 0  -0.00824000034481287 0.01713999919593334 0  -0.007455999962985516 0.01733800023794174 0  -0.009065000340342522 0.01703800074756145 0  -0.00992599967867136 0.01693099923431873 0  -0.0133899999782443 0.01692000031471252 0  -0.01361399982124567 0.01800700090825558 0  -0.01421200018376112 0.01711699925363064 0  -0.01283499971032143 0.01781499944627285 0  -0.01283999998122454 0.01884800009429455 0  -0.01205199956893921 0.01798100024461746 0  -0.0123460004106164 0.02177700027823448 0  -0.01282500009983778 0.02082400023937225 0  -0.01192799955606461 0.02085700072348118 0  -0.01150299981236458 0.01999000087380409 0  -0.01096300035715103 0.02082899957895279 0  -0.01240499969571829 0.01986300013959408 0  -0.01325500011444092 0.02179799973964691 0  -0.01463800016790628 0.02102999947965145 0  -0.01509600039571524 0.02198899909853935 0  -0.01416600029915571 0.02188700065016747 0  -0.009579000063240528 0.01980300061404705 0  -0.01113499980419874 0.03077900037169456 0  -0.01163399964570999 0.02991200052201748 0  -0.01068400032818317 0.02985299937427044 0  -0.005948999896645546 0.02946599945425987 0  -0.006397999823093414 0.0304150003939867 0  -0.006893000099807978 0.02955600060522556 0  -0.008662000298500061 0.01984900049865246 0  -0.006304999813437462 0.01923399977385998 0  -0.007242999970912933 0.01909700036048889 0  -0.006515000015497208 0.01838799938559532 0  -0.00660800002515316 0.01755299977958202 0  -0.005669999867677689 0.01779000088572502 0  0.04863499850034714 0.09077899903059006 0  0.04953600093722343 0.09031199663877487 0  0.0492670014500618 0.09145600348711014 0  0.04816599935293198 0.09157299995422363 0  0.01610399968922138 0.05890100076794624 0  0.01714799925684929 0.05880299955606461 0  0.01668700017035007 0.05969600006937981 0  0.02958700060844421 0.04390899837017059 0  0.03004200011491776 0.04285899922251701 0  0.03053900040686131 0.04358400031924248 0  0.03191199898719788 0.04811599850654602 0  0.03282999992370605 0.04744699969887733 0  0.03321599960327148 0.04820600152015686 0  0.03179400041699409 0.05161499977111816 0  0.03080900013446808 0.0516740009188652 0  0.03132300078868866 0.0507350005209446 0  0.03083599917590618 0.04989999905228615 0  0.03188199922442436 0.04979899898171425 0  0.03030600026249886 0.05082499980926514 0  0.02979999966919422 0.05175299942493439 0  0.02977300062775612 0.05001400038599968 0  0.02918400056660175 0.04923700168728828 0  0.0287069994956255 0.05011999979615211 0  0.02810700051486492 0.0493369996547699 0  0.04605099931359291 0.093129001557827 0  0.0449489988386631 0.09314800053834915 0  0.04551300033926964 0.09231600165367126 0  0.04443199932575226 0.09230399876832962 0  0.007197000086307526 0.02424100041389465 0  0.007968000136315823 0.0247150007635355 0  0.007222000043839216 0.02531700022518635 0  0.008059999905526638 0.02568499930202961 0  0.02763999998569489 0.05022300034761429 0  0.02353800088167191 0.05228099972009659 0  0.02307399921119213 0.05317100137472153 0  0.02248400077223778 0.0523729994893074 0  0.024125000461936 0.05308099836111069 0  0.0303339995443821 0.05260699987411499 0  0.01846900023519993 0.03544000163674355 0  0.01756699942052364 0.0352960005402565 0  0.01797600090503693 0.03440399840474129 0  0.01297200005501509 0.04065899923443794 0  0.01201300043612719 0.04064900055527687 0  0.0124719999730587 0.03976099938154221 0  0.0115130003541708 0.03975100070238113 0  0.01105399988591671 0.04063700139522552 0  0.01101099979132414 0.03885199874639511 0  0.01197199989110231 0.03886400163173676 0  0.01251399982720613 0.04154700040817261 0  -0.02828099951148033 0.07333000004291534 0  -0.02716000005602837 0.0736519992351532 0  -0.02814500033855438 0.07415399700403214 0  -0.02649400010704994 0.07287900149822235 0  -0.02608099952340126 0.07372800260782242 0  -0.02503399923443794 0.07380799949169159 0  -0.02549700066447258 0.07461400330066681 0  -0.02447200007736683 0.07300999760627747 0  -0.02400900050997734 0.07387199997901917 0  -0.02451100014150143 0.07467900216579437 0  -0.02854499965906143 0.07149399816989899 0  -0.01972999982535839 0.08590500056743622 0  -0.02073399908840656 0.08586099743843079 0  -0.01891699992120266 0.09516800194978714 0  -0.01990400068461895 0.09515500068664551 0  -0.01934400014579296 0.09432599693536758 0  -0.0203269999474287 0.09431800246238708 0  -0.01976799964904785 0.09348399937152863 0  -0.01775600016117096 0.09788300096988678 0  -0.01679700054228306 0.0979280024766922 0  -0.01646200008690357 0.09878499805927277 0  -0.01447200030088425 0.08865100145339966 0  -0.01196299958974123 0.08209700137376785 0  -0.01096799969673157 0.08214200288057327 0  -0.01152599975466728 0.08295000344514847 0  -0.01110100001096725 0.08380500227212906 0  -0.01053799968212843 0.08299700170755386 0  -0.01583800092339516 0.08024299889802933 0  -0.0162809994071722 0.07938499748706818 0  -0.01528500020503998 0.07943300157785416 0  -0.01428900007158518 0.07947999984025955 0  -0.01473200041800737 0.07862100005149841 0  -0.01905599981546402 0.0834449976682663 0  -0.01850000023841858 0.08263300359249115 0  -0.01949900016188622 0.08258700370788574 0  -0.02049900032579899 0.0825439989566803 0  -0.02505099959671497 0.0754920020699501 0  -0.0256120003759861 0.07799799740314484 0  -0.02521600015461445 0.07884900271892548 0  -0.0233130007982254 0.0245949998497963 0  -0.02369000017642975 0.02525000087916851 0  -0.02397399954497814 0.02591600082814693 0  -0.02428000047802925 0.02663400024175644 0  -0.02322500012814999 0.02649700082838535 0  -0.0198769997805357 0.0239850003272295 0  -0.01887799985706806 0.02400000020861626 0  -0.02088000066578388 0.02393900044262409 0  -0.02254600077867508 0.02325999923050404 0  -0.01751299947500229 0.01831299997866154 0  -0.01713700033724308 0.01907699927687645 0  -0.01826000027358532 0.01868000067770481 0  -0.0167469996958971 0.01793600060045719 0  -0.0183700006455183 0.02313300035893917 0  -0.01649899967014
[...]
<PointData  Vectors="velocity"> 
<DataArray  type="Float64"  Name="velocity"  NumberOfComponents="3" format="ascii">2.8029999230057001e-03 -1.5290000010281801e-03 0.0000000000000000e+00  2.2350000217556953e-03 -1.4130000490695238e-03 0.0000000000000000e+00  2.2670000325888395e-03 -2.2670000325888395e-03 0.0000000000000000e+00  3.8590000476688147e-03 -3.3279999624937773e-03 0.0000000000000000e+00  7.0600002072751522e-04 -2.0059999078512192e-03 0.0000000000000000e+00  3.9610001258552074e-03 -2.0850000437349081e-03 0.0000000000000000e+00  3.5339999012649059e-03 -2.0830000285059214e-03 0.0000000000000000e+00  4.7590001486241817e-03 -3.0370000749826431e-03 0.0000000000000000e+00  3.0209999531507492e-03 -2.1220000926405191e-03 0.0000000000000000e+00  5.4480000399053097e-03 -2.9750000685453415e-03 0.0000000000000000e+00  7.8379996120929718e-03 -1.1497000232338905e-02 0.0000000000000000e+00  6.0239997692406178e-03 -1.2458000332117081e-02 0.0000000000000000e+00  1.2652999721467495e-02 -9.2940004542469978e-03 0.0000000000000000e+00  1.1521000415086746e-02 -9.9860001355409622e-03 0.0000000000000000e+00  -1.9690999761223793e-02 -5.0893999636173248e-02 0.0000000000000000e+00  1.5109999803826213e-03 -5.1640998572111130e-02 0.0000000000000000e+00  1.5109999803826213e-03 -5.1876001060009003e-02 0.0000000000000000e+00  -1.8835999071598053e-02 -7.9591996967792511e-02 0.0000000000000000e+00  -1.7209000885486603e-02 -6.7496001720428467e-02 0.0000000000000000e+00  -1.5302999876439571e-02 -6.7160002887248993e-02 0.0000000000000000e+00  3.0219999607652426e-03 -5.2129998803138733e-02 0.0000000000000000e+00  -1.3004000484943390e-01 -9.6606001257896423e-02 0.0000000000000000e+00  -1.1528500169515610e-01 -8.1370003521442413e-02 0.0000000000000000e+00  -1.2917900085449219e-01 -1.0325299948453903e-01 0.0000000000000000e+00  -5.5631000548601151e-02 -6.8273000419139862e-02 0.0000000000000000e+00  -6.7059002816677094e-02 -7.9686000943183899e-02 0.0000000000000000e+00  -5.8435998857021332e-02 -6.3386000692844391e-02 0.0000000000000000e+00  -6.8894997239112854e-02 -8.5862003266811371e-02 0.0000000000000000e+00  9.0799998724833131e-04 -1.7300000181421638e-03 0.0000000000000000e+00  1.7729999963194132e-03 -2.4870000779628754e-03 0.0000000000000000e+00  9.6400000620633364e-04 -2.7739999350160360e-03 0.0000000000000000e+00  2.3000000510364771e-04 -3.0590000096708536e-03 0.0000000000000000e+00  4.5299998600967228e-04 -1.8550000386312604e-03 0.0000000000000000e+00  1.9259999971836805e-03 -3.7640000227838755e-03 0.0000000000000000e+00  3.0000000260770321e-03 -3.3990000374615192e-03 0.0000000000000000e+00  4.5630000531673431e-03 -4.4280001893639565e-03 0.0000000000000000e+00  3.2919999212026596e-03 -4.7949999570846558e-03 0.0000000000000000e+00  1.3500000350177288e-03 -1.5429999912157655e-03 0.0000000000000000e+00  9.0190004557371140e-03 -7.8779999166727066e-03 0.0000000000000000e+00  6.8000000901520252e-03 -5.2889999933540821e-03 0.0000000000000000e+00  5.3710001520812511e-03 -4.3370001949369907e-03 0.0000000000000000e+00  1.6639999812468886e-03 -1.4319999609142542e-03 0.0000000000000000e+00  2.0020001102238894e-03 -1.4240000164136291e-03 0.0000000000000000e+00  1.0916000232100487e-02 -5.6819999590516090e-03 0.0000000000000000e+00  9.1819996014237404e-03 -4.6819997951388359e-03 0.0000000000000000e+00  1.0963999666273594e-02 -5.8849998749792576e-03 0.0000000000000000e+00  9.1469995677471161e-03 -4.8099998384714127e-03 0.0000000000000000e+00  7.1140001527965069e-03 -3.7760001141577959e-03 0.0000000000000000e+00  8.5119996219873428e-03 -4.9390001222491264e-03 0.0000000000000000e+00  2.3530000820755959e-02 4.1777998208999634e-02 0.0000000000000000e+00  2.3764999583363533e-02 4.2711999267339706e-02 0.0000000000000000e+00  -2.0270000677555799e-03 -2.9704999178647995e-02 0.0000000000000000e+00  2.3040000349283218e-02 3.5482000559568405e-02 0.0000000000000000e+00  2.2430999204516411e-02 3.3968001604080200e-02 0.0000000000000000e+00  2.3022999987006187e-02 3.5519998520612717e-02 0.0000000000000000e+00  -3.4683000296354294e-02 -2.0864000543951988e-02 0.0000000000000000e+00  -3.5760998725891113e-02 -1.2422000057995319e-02 0.0000000000000000e+00  -2.9154000803828239e-02 -1.0402999818325043e-02 0.0000000000000000e+00  -3.9427001029253006e-02 -3.0826000496745110e-02 0.0000000000000000e+00  -4.1698001325130463e-02 -2.0980000495910645e-02 0.0000000000000000e+00  -8.2120001316070557e-02 -7.4638001620769501e-02 0.0000000000000000e+00  -9.6294000744819641e-02 -9.1135002672672272e-02 0.0000000000000000e+00  -6.4318001270294189e-02 -6.9081999361515045e-02 0.0000000000000000e+00  -7.7623002231121063e-02 -8.5105001926422119e-02 0.0000000000000000e+00  3.9124000817537308e-02 5.5849999189376831e-02 0.0000000000000000e+00  3.6366999149322510e-02 5.3576998412609100e-02 0.0000000000000000e+00  3.4085001796483994e-02 5.5133000016212463e-02 0.0000000000000000e+00  -6.8359998986124992e-03 -4.3818999081850052e-02 0.0000000000000000e+00  3.7117999047040939e-02 4.1919000446796417e-02 0.0000000000000000e+00  -2.5368999689817429e-02 -4.7127000987529755e-02 0.0000000000000000e+00  -2.2407999262213707e-02 -4.6588998287916183e-02 0.0000000000000000e+00  -4.7805000096559525e-02 -1.4705999754369259e-02 0.0000000000000000e+00  -6.0449998825788498e-02 -3.0395999550819397e-02 0.0000000000000000e+00  -3.1844001263380051e-02 -9.4140004366636276e-03 0.0000000000000000e+00  -3.5670001059770584e-02 5.8699998771771789e-04 0.0000000000000000e+00  -6.5857999026775360e-02 -2.0919000729918480e-02 0.0000000000000000e+00  -5.3307000547647476e-02 -6.8310000933706760e-03 0.0000000000000000e+00  3.0627999454736710e-02 5.0349999219179153e-02 0.0000000000000000e+00  3.8183998316526413e-02 5.4581999778747559e-02 0.0000000000000000e+00  3.3642999827861786e-02 5.3954001516103745e-02 0.0000000000000000e+00  -3.4429999068379402e-03 2.8560999780893326e-02 0.0000000000000000e+00  4.3420000001788139e-03 3.7937000393867493e-02 0.0000000000000000e+00  -1.4006000012159348e-02 2.4916000664234161e-02 0.0000000000000000e+00  -2.7400499582290649e-01 -6.5361998975276947e-02 0.0000000000000000e+00  -2.6290199160575867e-01 -5.0195001065731049e-02 0.0000000000000000e+00  -2.6542299985885620e-01 -6.4528003334999084e-02 0.0000000000000000e+00  -7.8625999391078949e-02 -7.3585003614425659e-02 0.0000000000000000e+00  -6.3487999141216278e-02 -5.6485999375581741e-02 0.0000000000000000e+00  -7.2307996451854706e-02 -5.0229001790285110e-02 0.0000000000000000e+00  -6.8000000901520252e-03 -1.2844000011682510e-02 0.0000000000000000e+00  -6.8000000901520252e-03 -1.3766000047326088e-02 0.0000000000000000e+00  -7.0409998297691345e-03 -1.1636000126600266e-02 0.0000000000000000e+00  -7.2929998859763145e-03 -1.0374999605119228e-02 0.0000000000000000e+00  -6.8000000901520252e-03 -6.0439999215304852e-03 0.0000000000000000e+00  1.2901999987661839e-02 -4.0460000745952129e-03 0.0000000000000000e+00  -6.3049998134374619e-03 -5.0539998337626457e-03 0.0000000000000000e+00  1.5093999914824963e-02 -3.9929999038577080e-03 0.0000000000000000e+00  1.3446999713778496e-02 -6.8870000541210175e-03 0.0000000000000000e+00  1.6319999471306801e-02 -5.0160000100731850e-03 0.0000000000000000e+00  1.4688000082969666e-02 -7.8769996762275696e-03 0.0000000000000000e+00  1.3704000040888786e-02 -8.1740003079175949e-03 0.0000000000000000e+00  1.3806000351905823e-02 -8.5279997438192368e-03 0.0000000000000000e+00  1.3407000340521336e-02 -8.8379997760057449e-03 0.0000000000000000e+00  1.3431999832391739e-02 -8.7350001558661461e-03 0.0000000000000000e+00  1.3341999612748623e-02 -8.3649996668100357e-03 0.0000000000000000e+00  1.4248000457882881e-02 -7.6859998516738415e-03 0.0000000000000000e+00  1.2140000239014626e-02 -6.9050001911818981e-03 0.0000000000000000e+00  1.2497000396251678e-02 -6.5350001677870750e-03 0.0000000000000000e+00  1.3592000119388103e-02 -7.1930000558495522e-03 0.0000000000000000e+00  9.9430000409483910e-03 -1.0421999730169773e-02 0.0000000000000000e+00  3.5934001207351685e-02 -1.3624999672174454e-02 0.0000000000000000e+00  3.1088000163435936e-02 -1.2000000104308128e-02 0.0000000000000000e+00  3.5038001835346222e-02 -8.6350003257393837e-03 0.0000000000000000e+00  4.8928998410701752e-02 -3.2500000088475645e-04 0.0000000000000000e+00  5.3451001644134521e-02 -1.3510000426322222e-03 0.0000000000000000e+00  4.7242999076843262e-02 -3.0399998649954796e-04 0.0000000000000000e+00  6.5339999273419380e-03 -1.1517000384628773e-02 0.0000000000000000e+00  -2.0121999084949493e-02 -2.0635999739170074e-02 0.0000000000000000e+00  -1.2446000240743160e-02 -1.8678000196814537e-02 0.0000000000000000e+00  -6.5040001645684242e-03 -1.6397999599575996e-02 0.0000000000000000e+00  -6.8000000901520252e-03 -1.4762000180780888e-02 0.0000000000000000e+00  -6.8000000901520252e-03 -1.5866000205278397e-02 0.0000000000000000e+00  2.1393999457359314e-02 3.1175000593066216e-02 0.0000000000000000e+00  2.0633000880479813e-02 2.9028000310063362e-02 0.0000000000000000e+00  2.1044999361038208e-02 3.0288999900221825e-02 0.0000000000000000e+00  2.1898999810218811e-02 3.2636001706123352e-02 0.0000000000000000e+00  1.1556500196456909e-01 1.1811099946498871e-01 0.0000000000000000e+00  1.1373600363731384e-01 1.2481799721717834e-01 0.0000000000000000e+00  1.1252599954605103e-01 1.2387699633836746e-01 0.0000000000000000e+00  2.7610000222921371e-02 3.4740000963211060e-02 0.0000000000000000e+00  7.6999996963422745e-05 -2.4932000786066055e-02 0.0000000000000000e+00  8.1300002057105303e-04 -2.4932000786066055e-02 0.0000000000000000e+00  2.6930000633001328e-02 5.2689000964164734e-02 0.0000000000000000e+00  2.5309999473392963e-03 -2.4932000786066055e-02 0.0000000000000000e+00  2.7679998893290758e-03 -2.4932000786066055e-02 0.0000000000000000e+00  4.2373001575469971e-02 8.3636000752449036e-02 0.0000000000000000e+00  5.0781998783349991e-02 9.3245998024940491e-02 0.0000000000000000e+00  4.3331999331712723e-02 8.0269001424312592e-02 0.0000000000000000e+00  4.4148001819849014e-02 7.7472001314163208e-02 0.0000000000000000e+00  3.4896001219749451e-02 6.7125000059604645e-02 0.0000000000000000e+00  5.2292000502347946e-02 9.0285003185272217e-02 0.0000000000000000e+00  5.9160001575946808e-02 1.0175699740648270e-01 0.0000000000000000e+00  5.3746998310089111e-02 8.7867997586727142e-02 0.0000000000000000e+00  5.6708000600337982e-02 8.5390999913215637e-02 0.0000000000000000e+00  6.2983997166156769e-02 9.6785001456737518e-02 0.0000000000000000e+00  6.8539001047611237e-02 9.2950001358985901e-02 0.0000000000000000e+00  2.3437999188899994e-02 3.7703998386859894e-02 0.0000000000000000e+00  2.3858999833464622e-02 4.0695998817682266e-02 0.0000000000000000e+00  2.3510999977588654e-02 3.9510000497102737e-02 0.0000000000000000e+00  2.3623000830411911e-02 4.3024998158216476e-02 0.0000000000000000e+00  -8.5450001060962677e-03 -2.3941999301314354e-02 0.0000000000000000e+00  -8.7970001623034477e-03 -2.3690000176429749e-02 0.0000000000000000e+00  -1.1819999665021896e-02 -8.0220000818371773e-03 0.0000000000000000e+00  -1.0095000267028809e-02 -7.2900000959634781e-03 0.0000000000000000e+00  7.2068996727466583e-02 1.0391300171613693e-01 0.0000000000000000e+00  9.7501002252101898e-02 1.2500199675559998e-01 0.0000000000000000e+00  9.8637998104095459e-02 1.2799599766731262e-01 0.0000000000000000e+00  1.0308200120925903e-01 1.2326599657535553e-01 0.0000000000000000e+00  9.4633996486663818e-02 1.2871900200843811e-01 0.0000000000000000e+00  5.6738000363111496e-02 1.0473199933767319e-01 0.0000000000000000e+00  4.2289998382329941e-02 2.1213000640273094e-02 0.0000000000000000e+00  4.7348000109195709e-02 2.3212000727653503e-02 0.0000000000000000e+00  3.4028001129627228e-02 1.6121000051498413e-02 0.0000000000000000e+00  1.2936900556087494e-01 5.8134000748395920e-02 0.0000000000000000e+00  1.3358299434185028e-01 5.6821998208761215e-02 0.0000000000000000e+00  1.2524999678134918e-01 5.3895998746156693e-02 0.0000000000000000e+00  1.2868699431419373e-01 5.3022000938653946e-02 0.0000000000000000e+00  1.3758200407028198e-01 5.5442001670598984e-02 0.0000000000000000e+00  1.2342599779367447e-01 4.8836000263690948e-02 0.0000000000000000e+00  1.1885300278663635e-01 4.9897998571395874e-02 0.0000000000000000e+00  1.3635599613189697e-01 6.0927998274564743e-02 0.0000000000000000e+00  2.5110000278800726e-03 -5.2386000752449036e-02 0.0000000000000000e+00  -1.9349999725818634e-02 -6.8495996296405792e-02 0.0000000000000000e+00  2.0429999567568302e-03 -5.2620001137256622e-02 0.0000000000000000e+00  -2.0636999979615211e-02 -8.1046998500823975e-02 0.0000000000000000e+00  -2.4016000330448151e-02 -8.3617001771926880e-02 0.0000000000000000e+00  -2.9309999197721481e-02 -9.9662996828556061e-02 0.0000000000000000e+00  -2.8331000357866287e-02 -8.8086999952793121e-02 0.0000000000000000e+00  -3.0674999579787254e-02 -1.1315999925136566e-01 0.0000000000000000e+00  -3.5000000149011612e-02 -1.1615099757909775e-01 0.0000000000000000e+00  -3.4026999026536942e-02 -1.0315900295972824e-01 0.0000000000000000e+00  3.2860001083463430e-03 -5.1865998655557632e-02 0.0000000000000000e+00  -6.0697000473737717e-02 -5.8325000107288361e-02 0.0000000000000000e+00  -4.9614001065492630e-02 -4.8443999141454697e-02 0.0000000000000000e+00  3.2840000931173563e-03 3.5468000918626785e-02 0.0000000000000000e+00  9.4699999317526817e-03 3.6231998354196548e-02 0.0000000000000000e+00  9.8100001923739910e-04 3.0290000140666962e-02 0.0000000000000000e+00  6.5790000371634960e-03 3.0594000592827797e-02 0.0000000000000000e+00  -2.3709998931735754e-03 2.4451000615954399e-02 0.0000000000000000e+00  2.5214999914169312e-02 5.1961999386548996e-02 0.0000000000000000e+00  2.1299000829458237e-02 5.0962999463081360e-02 0.0000000000000000e+00  3.0313000082969666e-02 5.4855998605489731e-02 0.0000000000000000e+00  -1.1453600227832794e-01 -8.8230997323989868e-02 0.0000000000000000e+00  -1.6359399259090424e-01 -2.0861700177192688e-01 0.0000000000000000e+00  -1.7282000184059143e-01 -2.1828800439834595e-01 0.0000000000000000e+00  -1.6963599622249603e-01 -2.0566900074481964e-01 0.0000000000000000e+00  -1.7623400688171387e-01 -2.0253199338912964e-01 0.0000000000000000e+00  -1.7772799730300903e-01 -2.1548399329185486e-01 0.0000000000000000e+00  -1.2300399690866470e-01 -1.8289600312709808e-01 0.0000000000000000e+00  -1.1529699712991714e-01 -1.8619999289512634e-01 0.0000000000000000e+00  -1.2492299824953079e-01 -1.9763599336147308e-01 0.0000000000000000e+00  -1.3402999937534332e-01 -2.0812000334262848e-01 0.0000000000000000e+00  -1.2718600034713745e-01 -2.1126799285411835e-01 0.0000000000000000e+00  -8.0954000353813171e-02 -9.8630003631114960e-02 0.0000000000000000e+00  -8.9291997253894806e-02 -1.1678700149059296e-01 0.0000000000000000e+00  -7.7180996537208557e-02 -1.0316500067710876e-01 0.0000000000000000e+00  -6.5700002014636993e-02 -9.0181998908519745e-02 0.0000000000000000e+00  -3.2079998403787613e-02 -8.9634999632835388e-02 0.0000000000000000e+00  -2.7411000803112984e-02 -6.4986996352672577e-02 0.0000000000000000e+00  -2.8227999806404114e-02 -6.3841998577117920e-02 0.0000000000000000e+00  1.0195000097155571e-02 -9.2500001192092896e-03 0.0000000000000000e+00  1.1332999914884567e-02 -1.0576999746263027e-02 0.0000000000000000e+00  1.2213000096380711e-02 -1.2161999940872192e-02 0.0000000000000000e+00  1.3160999864339828e-02 -1.3868000358343124e-02 0.0000000000000000e+00  -4.6000001020729542e-05 -2.1130000241100788e-03 0.0000000000000000e+00  3.9400001987814903e-03 -3.1580000650137663e-03 0.0000000000000000e+00  5.6989998556673527e-03 -4.2050001211464405e-03 0.0000000000000000e+00  2.4459999985992908e-03 -2.2390000522136688e-03 0.0000000000000000e+00  7.8760003671050072e-03 -6.5449997782707214e-03 0.0000000000000000e+00  -3.2230000942945480e-03 -1.9890000112354755e-03 0.0000000000000000e+00  5.0059999339282513e-03 -2.2879999596625566e-03 0.0000000000000000e+00  -2.2670000325888395e-03 -1.5109999803826213e-03 0.0000000000000000e+00  -4.2039998807013035e-03 -2.4800000246614218e-03 0.0000000000000000e+00  6.6729998216032982e-03 -4.0509998798370361e-03 0.0000000000000000e+00  1.0416000150144100e-02 -5.8039999566972256e-03 0.0000000000000000e+00  1.1485000140964985e-02 -6.6120000556111336e-03 0.0000000000000000e+00  9.5370002090930939e-03 -5.9790001250803471e-03 0.0000000000000000e+00  3.1208999454975128e-02 -1.7333000898361206e-02 0.0000000000000000e+00  3.5990998148918152e-02 -2.0067999139428139e-02 0.0000000000000000e+00  3.1168999150395393e-02 -2.3829000070691109e-02 0.0000000000000000e+00  1.4767000451683998e-02 -7.8429998829960823e-03 0.0000000000000000e+00  1.7822999507188797e-02 -5.3810002282261848e-03 0.0000000000000000e+00  2.0416999235749245e-02 -3.8709999062120914e-03 0.0000000000000000e+00  2.0250000059604645e-02 -4.4689998030662537e-03 0.0000000000000000e+00  1.7426000908017159e-02 -5.1219998858869076e-03 0.0000000000000000e+00  1.5569999814033508e-02 -6.5199998207390308e-03 0.0000000000000000e+00  2.3670999333262444e-02 -2.3749999236315489e-03 0.0000000000000000e+00  2.7512000873684883e-02 -1.0110000148415565e-03 0.0000000000000000e+00  2.6606999337673187e-02 -1.9990000873804092e-03 0.0000000000000000e+00  2.1103000268340111e-02 3.0734999105334282e-02 0.0000000000000000e+00  2.0385000854730606e-02 2.9199000447988510e-02 0.0000000000000000e+00  2.1044999361038208e-02 3.0771000310778618e-02 0.0000000000000000e+00  2.2949999198317528e-02 4.2530000209808350e-02 0.0000000000000000e+00  2.3144999518990517e-02 3.9962999522686005e-02 0.0000000000000000e+00  2.2923000156879425e-02 4.4241998344659805e-02 0.0000000000000000e+00  1.6280999407172203e-02 8.0825999379158020e-02 0.0000000000000000e+00  1.3043999671936035e-02 8.9994996786117554e-02 0.0000000000000000e+00  1.7148999497294426e-02 8.7008997797966003e-02 0.0000000000000000e+00  -2.2670000325888395e-03 -2.9464999213814735e-02 0.0000000000000000e+00  2.3212000727653503e-02 3.8199998438358307e-02 0.0000000000000000e+00  2.2970000281929970e-02 3.9402998983860016e-02 0.0000000000000000e+00  2.3483000695705414e-02 4.0383998304605484e-02 0.0000000000000000e+00  2.3684000596404076e-02 3.9050001651048660e-02 0.0000000000000000e+00  2.3330999538302422e-02 3.7362001836299896e-02 0.0000000000000000e+00  2.3386999964714050e-02 3.6527998745441437e-02 0.0000000000000000e+00  2.2879999130964279e-02 4.7182001173496246e-02 0.0000000000000000e+00  2.3044999688863754e-02 4.5850999653339386e-02 0.0000000000000000e+00  2.1841999143362045e-02 5.0696000456809998e-02 0.0000000000000000e+00  2.2324999794363976e-02 4.9111001193523407e-02 0.0000000000000000e+00  2.3206999525427818e-02 3.6401998251676559e-02 0.0000000000000000e+00  2.3612000048160553e-02 3.7427000701427460e-02 0.0000000000000000e+00  2.3857999593019485e-02 3.9790999144315720e-02 0.0000000000000000e+00  2.3630000650882721e-02 4.1974000632762909e-02 0.0000000000000000e+00  2.3342000320553780e-02 4.5336998999118805e-02 0.0000000000000000e+00  2.3523999378085136e-02 4.4718999415636063e-02 0.0000000000000000e+00  2.3738000541925430e-02 3.8729999214410782e-02 0.0000000000000000e+00  -4.8386000096797943e-02 -5.1314000040292740e-02 0.0000000000000000e+00  -5.2007999271154404e-02 -6.0809999704360962e-02 0.0000000000000000e+00  -5.6357998400926590e-02 -5.4777998477220535e-02 0.0000000000000000e+00  -4.7570999711751938e-02 -2.6752000674605370e-02 0.0000000000000000e+00  -4.5251999050378799e-02 -3.1403001397848129e-02 0.0000000000000000e+00  -5.0831999629735947e-02 -3.7158999592065811e-02 0.0000000000000000e+00  -4.4169999659061432e-02 -4.1248001158237457e-02 0.0000000000000000e+00  -5.5589001625776291e-02 -4.1345000267028809e-02 0.0000000000000000e+00  -2.7789000421762466e-02 -2.0182000473141670e-02 0.0000000000000000e+00  -4.2980000376701355e-02 -2.4361999705433846e-02 0.0000000000000000e+00  -7.3833003640174866e-02 -4.7097999602556229e-02 0.0000000000000000e+00  -1.1651299893856049e-01 -9.7652003169059753e-02 0.0000000000000000e+00  -1.3952399790287018e-01 -1.3880899548530579e-01 0.0000000000000000e+00  -1.5776300430297852e-01 -1.4450700581073761e-01 0.0000000000000000