<?xml version="1.0"?>
<VTKFile type="UnstructuredGrid"  version="0.1"  >
<UnstructuredGrid>
<Piece  NumberOfPoints="6340" NumberOfCells="12376">
<Points>
<DataArray  type="Float64"  NumberOfComponents="3"  format="ascii">-0.01941699907183647 0.02072899974882603 0  -0.02006899937987328 0.02137999981641769 0  -0.0203000009059906 0.02040000073611736 0  -0.02082699909806252 0.02113099955022335 0  -0.01965299993753433 0.019811000674963 0  -0.01925200037658215 0.02160399965941906 0  -0.01972400024533272 0.02233400009572506 0  -0.01926299929618835 0.0231500007212162 0  -0.02016899921000004 0.02306799963116646 0  -0.01879799924790859 0.02232800051569939 0  -0.008937999606132507 0.01761999912559986 0  -0.009545000270009041 0.01853399910032749 0  -0.009878999553620815 0.01759600080549717 0  -0.01049099955707788 0.01855099946260452 0  -0.02494299970567226 0.07422199845314026 0  -0.02585400082170963 0.07460799813270569 0  -0.02601500041782856 0.07383000105619431 0  -0.02543799951672554 0.0677340030670166 0  -0.0260429996997118 0.06842800229787827 0  -0.02623699977993965 0.06753399968147278 0  -0.02694999985396862 0.06793999671936035 0  -0.01252400036901236 0.0860769972205162 0  -0.01340200006961823 0.08592399954795837 0  -0.01282500009983778 0.08527100086212158 0  -0.01924999989569187 0.08025500178337097 0  -0.01829900033771992 0.0804390013217926 0  -0.0188170000910759 0.08111900091171265 0  -0.01873799972236156 0.07957000285387039 0  -0.02179200015962124 0.02447599917650223 0  -0.02094599977135658 0.02460700087249279 0  -0.02130400016903877 0.02535999938845634 0  -0.02162200026214123 0.02612300030887127 0  -0.02216600067913532 0.02524000033736229 0  -0.02044999971985817 0.02549500018358231 0  -0.0200789999216795 0.02469800040125847 0  -0.01919900067150593 0.02477799914777279 0  -0.01958400011062622 0.02557500079274178 0  -0.02142900042235851 0.02370299957692623 0  -0.02235299907624722 0.02362100034952164 0  -0.02180000022053719 0.02247999981045723 0  -0.02132700011134148 0.02182500064373016 0  -0.02104499936103821 0.02289899997413158 0  -0.02055500075221062 0.02214699983596802 0  -0.01625600084662437 0.02201499976217747 0  -0.01675700023770332 0.02113799937069416 0  -0.01581699959933758 0.02111100032925606 0  -0.01712599955499172 0.02213500067591667 0  -0.01800600066781044 0.02214000001549721 0  -0.01752699911594391 0.02301999926567078 0  0.04216200113296509 0.07889500260353088 0  0.04179999977350235 0.0780860036611557 0  0.0431010015308857 0.07823500037193298 0  0.04528199881315231 0.08891899883747101 0  0.04607899859547615 0.08918999880552292 0  0.04496899992227554 0.08969999849796295 0  0.02710100077092648 0.09791000187397003 0  0.02727399952709675 0.09710399806499481 0  0.02819399908185005 0.0974079966545105 0  0.02609699964523315 0.09837199747562408 0  0.02625999972224236 0.09739699959754944 0  -0.006719000171869993 0.09451799839735031 0  -0.005810999777168036 0.09469500184059143 0  -0.006393000017851591 0.09534099698066711 0  -0.005477999802678823 0.09551999717950821 0  -0.01805900037288666 0.09398599714040756 0  -0.01840800046920776 0.09329299628734589 0  -0.01737000048160553 0.09354200214147568 0  -0.01899700053036213 0.09402599930763245 0  -0.01443799957633018 0.0999239981174469 0  -0.01467799954116344 0.1006930023431778 0  -0.01523800007998943 0.09995199739933014 0  -0.01058499980717897 0.09312199801206589 0  -0.009695000015199184 0.09326600283384323 0  -0.01027700025588274 0.09391800314188004 0  -0.01148299966007471 0.09297599643468857 0  -0.01090100035071373 0.09232500195503235 0  -0.01179900020360947 0.09217999875545502 0  -0.01412400044500828 0.09474000334739685 0  -0.0146660003811121 0.09536699950695038 0  -0.0150560000911355 0.09457699954509735 0  -0.01296900026500225 0.09347400069236755 0  -0.01388300023972988 0.09332700073719025 0  -0.01328899990767241 0.09268499910831451 0  0.01213600020855665 0.0912880003452301 0  0.01319599989801645 0.09119100123643875 0  0.01258600037544966 0.09196200221776962 0  0.007853000424802303 0.07808099687099457 0  0.008317999541759491 0.07727800309658051 0  0.00891099963337183 0.07798299938440323 0  -0.008689999580383301 0.01669999957084656 0  -0.007918000221252441 0.01685900054872036 0  -0.009504999965429306 0.01663899980485439 0  -0.0103559996932745 0.01657599955797195 0  -0.01377000007778406 0.01672999933362007 0  -0.01397399976849556 0.01784400083124638 0  -0.01456900034099817 0.01696600019931793 0  -0.01321300026029348 0.01761499978601933 0  -0.01320699974894524 0.01866500079631805 0  -0.01244099996984005 0.01774699985980988 0  -0.01268600020557642 0.02161999978125095 0  -0.01316600013524294 0.02067199908196926 0  -0.01228700019419193 0.02066599950194359 0  -0.01187799964100122 0.01976400054991245 0  -0.01133800018578768 0.02059200033545494 0  -0.01276800036430359 0.01967700012028217 0  -0.01357199996709824 0.02168099954724312 0  -0.01493099983781576 0.02096199989318848 0  -0.01534599997103214 0.02194499969482422 0  -0.01446000020951033 0.02181099914014339 0  -0.009983999654650688 0.01948300004005432 0  -0.01138199958950281 0.03071399964392185 0  -0.01188100036233664 0.02985499985516071 0  -0.01095400005578995 0.02975299954414368 0  -0.006302000023424625 0.02913299947977066 0  -0.0067349998280406 0.03012200072407722 0  -0.007232999894768 0.02927299961447716 0  -0.009078999981284142 0.01948099955916405 0  -0.006767000071704388 0.01872700080275536 0  -0.007689000107347965 0.01863900013267994 0  -0.006982999853789806 0.01787599921226501 0  -0.007083999924361706 0.01703000068664551 0  -0.006159999873489141 0.01721999980509281 0  0.04724200069904327 0.08534800261259079 0  0.0480009987950325 0.08486200124025345 0  0.04792699962854385 0.08588899672031403 0  0.04687900096178055 0.08608099818229675 0  0.01512799970805645 0.05797199904918671 0  0.0161300003528595 0.05778000131249428 0  0.01571200042963028 0.05870800092816353 0  0.02766400016844273 0.04186800122261047 0  0.02806999906897545 0.04078700020909309 0  0.02857300080358982 0.04145599901676178 0  0.03001799993216991 0.04580200091004372 0  0.03088000044226646 0.04505100101232529 0  0.03126600012183189 0.04575999826192856 0  0.02997799962759018 0.04926199838519096 0  0.02904600091278553 0.04941499978303909 0  0.02951600030064583 0.04843800142407417 0  0.02903199940919876 0.04766499996185303 0  0.03002800047397614 0.04746200144290924 0  0.02854599989950657 0.04862900078296661 0  0.02808400057256222 0.0495930016040802 0  0.02801899984478951 0.04788399860262871 0  0.02743400074541569 0.04717399924993515 0  0.02700099907815456 0.04809299856424332 0  0.02640200033783913 0.04737700149416924 0  0.04465800151228905 0.08758500218391418 0  0.04355999827384949 0.08768799901008606 0  0.04418300092220306 0.08692800253629684 0  0.04310800135135651 0.08700200170278549 0  0.006192999891936779 0.022902000695467 0  0.006918000057339668 0.0233559999614954 0  0.006233000196516514 0.02400200068950653 0  0.007017999887466431 0.02434499934315681 0  0.02597899921238422 0.0482960008084774 0  0.02209099940955639 0.05072300136089325 0  0.02167100086808205 0.05164799839258194 0  0.02107599936425686 0.05091400071978569 0  0.02268199995160103 0.05145800113677979 0  0.02861000038683414 0.05038300156593323 0  0.01686099916696548 0.03407799825072289 0  0.0160130001604557 0.03395799919962883 0  0.0163819994777441 0.03303400054574013 0  0.01180600002408028 0.03956399857997894 0  0.01091300044208765 0.03957299888134003 0  0.01132600009441376 0.03865300118923187 0  0.01043200027197599 0.03866299986839294 0  0.01001899968832731 0.03958100080490112 0  0.009952000342309475 0.03775199875235558 0  0.01084600016474724 0.03774499893188477 0  0.01139300037175417 0.0404839999973774 0  -0.02683800086379051 0.06879600137472153 0  -0.02577400021255016 0.06925900280475616 0  -0.02673600055277348 0.06957899779081345 0  -0.02510800026357174 0.06864099949598312 0  -0.02474099956452847 0.06948799639940262 0  -0.02373999916017056 0.06971599906682968 0  -0.02421200089156628 0.07039500027894974 0  -0.02317200042307377 0.06905999779701233 0  -0.02275799959897995 0.06992699950933456 0  -0.02326700091362 0.07060100138187408 0  -0.02703399956226349 0.06705299764871597 0  -0.01839100010693073 0.08197300136089325 0  -0.01933399960398674 0.08179599791765213 0  -0.01831099949777126 0.09033499658107758 0  -0.01920000091195107 0.09021899849176407 0  -0.01861900091171265 0.08955699950456619 0  -0.01950499974191189 0.08944500237703323 0  -0.01892399974167347 0.08877400308847427 0  -0.01749799959361553 0.09279700368642807 0  -0.01663400046527386 0.09292899817228317 0  -0.01640000008046627 0.09368900209665298 0  -0.01370500028133392 0.08511199802160263 0  -0.01106499973684549 0.07949099689722061 0  -0.01011800020933151 0.07967499643564224 0  -0.01064800005406141 0.08034899830818176 0  -0.01027399953454733 0.08119100332260132 0  -0.009727000258862972 0.08052299916744232 0  -0.01486799959093332 0.07714899629354477 0  -0.01534499973058701 0.07625199854373932 0  -0.01438399963080883 0.07644599676132202 0  -0.01342300046235323 0.07664000242948532 0  -0.01389100030064583 0.07574599981307983 0  -0.01778299920260906 0.079755999147892 0  -0.01728899963200092 0.07906000316143036 0  -0.01825099997222424 0.07886900007724762 0  -0.01921599917113781 0.07868000119924545 0  -0.02380700036883354 0.07127799838781357 0  -0.02434100024402142 0.07355500012636185 0  -0.02393599972128868 0.07442600280046463 0  -0.02264600060880184 0.02422500029206276 0  -0.02292999997735023 0.02480999939143658 0  -0.02312799915671349 0.02538100071251392 0  -0.02334100008010864 0.02599599957466125 0  -0.02245200052857399 0.02603499963879585 0  -0.01968299970030785 0.02391799911856651 0  -0.01879500038921833 0.02398700080811977 0  -0.02057499997317791 0.02381899952888489 0  -0.02206799946725368 0.02303400076925755 0  -0.01772099919617176 0.01829800009727478 0  -0.01734700053930283 0.01906000077724457 0  -0.01841999962925911 0.01868999935686588 0  -0.01700299978256226 0.01789500005543232 0  -0.01836300082504749 0.02312899939715862 0 
[...]
<PointData  Vectors="velocity"> 
<DataArray  type="Float64"  Name="velocity"  NumberOfComponents="3" format="ascii">4.4869999401271343e-03 1.8799999961629510e-03 0.0000000000000000e+00  4.0810001082718372e-03 1.8019999843090773e-03 0.0000000000000000e+00  -7.5599999399855733e-04 1.5109999803826213e-03 0.0000000000000000e+00  4.0999999328050762e-05 1.2460000580176711e-03 0.0000000000000000e+00  -1.0160000529140234e-03 1.5109999803826213e-03 0.0000000000000000e+00  8.2160001620650291e-03 4.3029999360442162e-03 0.0000000000000000e+00  8.4629999473690987e-03 4.6669999137520790e-03 0.0000000000000000e+00  1.2791999615728855e-02 7.1479999460279942e-03 0.0000000000000000e+00  8.5180001333355904e-03 4.8699998296797276e-03 0.0000000000000000e+00  1.2719999998807907e-02 6.8789999932050705e-03 0.0000000000000000e+00  1.2140999548137188e-02 -3.0749998986721039e-03 0.0000000000000000e+00  1.3326999731361866e-02 -2.2450000979006290e-03 0.0000000000000000e+00  1.2749999761581421e-02 -2.7109999209642410e-03 0.0000000000000000e+00  1.4297000132501125e-02 -1.5510000521317124e-03 0.0000000000000000e+00  -1.8822999671101570e-02 -6.1953999102115631e-02 0.0000000000000000e+00  1.2844000011682510e-02 -2.1153999492526054e-02 0.0000000000000000e+00  1.2844000011682510e-02 -2.1153999492526054e-02 0.0000000000000000e+00  -9.9989995360374451e-03 -7.9016998410224915e-02 0.0000000000000000e+00  -1.1331000365316868e-02 -7.1042001247406006e-02 0.0000000000000000e+00  -9.4269998371601105e-03 -7.0687003433704376e-02 0.0000000000000000e+00  1.2087999843060970e-02 -1.8888000398874283e-02 0.0000000000000000e+00  -8.3475001156330109e-02 -1.0642100125551224e-01 0.0000000000000000e+00  -7.6672002673149109e-02 -9.9468000233173370e-02 0.0000000000000000e+00  -8.1931002438068390e-02 -1.1009900271892548e-01 0.0000000000000000e+00  -4.3285999447107315e-02 -8.2618996500968933e-02 0.0000000000000000e+00  -4.9433998763561249e-02 -9.1315999627113342e-02 0.0000000000000000e+00  -4.5501999557018280e-02 -8.1092000007629395e-02 0.0000000000000000e+00  -4.8854999244213104e-02 -9.2952996492385864e-02 0.0000000000000000e+00  3.1880000606179237e-03 1.3089999556541443e-03 0.0000000000000000e+00  6.8600000813603401e-03 3.7179999053478241e-03 0.0000000000000000e+00  5.3679998964071274e-03 2.6430001016706228e-03 0.0000000000000000e+00  4.7229998745024204e-03 2.2980000358074903e-03 0.0000000000000000e+00  2.8790000360459089e-03 1.1840000515803695e-03 0.0000000000000000e+00  8.7339999154210091e-03 4.5730001293122768e-03 0.0000000000000000e+00  1.1408999562263489e-02 6.4869998022913933e-03 0.0000000000000000e+00  1.5821000561118126e-02 8.7599996477365494e-03 0.0000000000000000e+00  1.3399000279605389e-02 7.2150002233684063e-03 0.0000000000000000e+00  4.6600000932812691e-03 2.5480000767856836e-03 0.0000000000000000e+00  1.8810000037774444e-03 1.5999999959603883e-05 0.0000000000000000e+00  1.5109999803826213e-03 7.5599999399855733e-04 0.0000000000000000e+00  7.9700001515448093e-04 9.9400000181049109e-04 0.0000000000000000e+00  4.6569998376071453e-03 2.5190000887960196e-03 0.0000000000000000e+00  4.5170001685619354e-03 2.2710000630468130e-03 0.0000000000000000e+00  2.4012999609112740e-02 1.1148000136017799e-02 0.0000000000000000e+00  1.8131999298930168e-02 8.3999997004866600e-03 0.0000000000000000e+00  2.2059999406337738e-02 9.4879996031522751e-03 0.0000000000000000e+00  2.0264999940991402e-02 9.9820001050829887e-03 0.0000000000000000e+00  1.5960000455379486e-02 8.2809999585151672e-03 0.0000000000000000e+00  2.1111000329256058e-02 1.0793999768793583e-02 0.0000000000000000e+00  7.4879996478557587e-02 1.0970599949359894e-01 0.0000000000000000e+00  7.2242997586727142e-02 1.1151699721813202e-01 0.0000000000000000e+00  -1.5866000205278397e-02 -3.2487001270055771e-02 0.0000000000000000e+00  8.7710000574588776e-02 1.1635400354862213e-01 0.0000000000000000e+00  8.1878997385501862e-02 1.0692200064659119e-01 0.0000000000000000e+00  8.6911998689174652e-02 1.2138699740171432e-01 0.0000000000000000e+00  -4.6624001115560532e-02 1.0633400082588196e-01 0.0000000000000000e+00  -3.9792001247406006e-02 1.2037400156259537e-01 0.0000000000000000e+00  -3.5183999687433243e-02 1.1902499943971634e-01 0.0000000000000000e+00  -5.6487001478672028e-02 9.4304002821445465e-02 0.0000000000000000e+00  -5.0298999994993210e-02 1.1136099696159363e-01 0.0000000000000000e+00  -9.1352999210357666e-02 -8.6165003478527069e-02 0.0000000000000000e+00  -9.7920998930931091e-02 -9.2327997088432312e-02 0.0000000000000000e+00  -8.9013002812862396e-02 -8.1881999969482422e-02 0.0000000000000000e+00  -9.5876999199390411e-02 -8.7700001895427704e-02 0.0000000000000000e+00  -1.1043000034987926e-02 -5.9369998052716255e-03 0.0000000000000000e+00  -1.0769000276923180e-02 -7.6430002227425575e-03 0.0000000000000000e+00  -1.4503000304102898e-02 -8.6190002039074898e-03 0.0000000000000000e+00  6.0069998726248741e-03 -3.4033998847007751e-02 0.0000000000000000e+00  -4.8879999667406082e-03 3.2220000866800547e-03 0.0000000000000000e+00  -7.8910002484917641e-03 -4.2594000697135925e-02 0.0000000000000000e+00  -6.5449997782707214e-03 -4.2056001722812653e-02 0.0000000000000000e+00  -6.9107003509998322e-02 -6.0795001685619354e-02 0.0000000000000000e+00  -7.6116003096103668e-02 -6.8676002323627472e-02 0.0000000000000000e+00  -6.3991002738475800e-02 -5.6387998163700104e-02 0.0000000000000000e+00  -6.2022998929023743e-02 -5.3521998226642609e-02 0.0000000000000000e+00  -7.0868998765945435e-02 -6.5173998475074768e-02 0.0000000000000000e+00  -6.3537999987602234e-02 -5.7604998350143433e-02 0.0000000000000000e+00  -2.9611999168992043e-02 -1.7783999443054199e-02 0.0000000000000000e+00  -2.3471999913454056e-02 -1.1061999946832657e-02 0.0000000000000000e+00  -2.4235000833868980e-02 -1.2912999838590622e-02 0.0000000000000000e+00  -4.4024001806974411e-02 -3.4860000014305115e-02 0.0000000000000000e+00  -3.7870999425649643e-02 -2.9114000499248505e-02 0.0000000000000000e+00  -4.8252999782562256e-02 -3.9328001439571381e-02 0.0000000000000000e+00  -8.2515999674797058e-02 5.5323999375104904e-02 0.0000000000000000e+00  -7.4444003403186798e-02 7.3131002485752106e-02 0.0000000000000000e+00  -9.2483997344970703e-02 5.8095000684261322e-02 0.0000000000000000e+00  2.2352000698447227e-02 1.0403999686241150e-01 0.0000000000000000e+00  2.7168000116944313e-02 1.1684700101613998e-01 0.0000000000000000e+00  3.2963000237941742e-02 1.1811300367116928e-01 0.0000000000000000e+00  -4.5329998247325420e-03 2.2670000325888395e-03 0.0000000000000000e+00  -5.4549998603761196e-03 2.4969999212771654e-03 0.0000000000000000e+00  -4.2909998446702957e-03 2.0250000525265932e-03 0.0000000000000000e+00  -4.0389997884631157e-03 1.7729999963194132e-03 0.0000000000000000e+00  -3.0219999607652426e-03 1.5109999803826213e-03 0.0000000000000000e+00  9.8710004240274429e-03 -3.8199999835342169e-04 0.0000000000000000e+00  -2.5269999168813229e-03 1.5109999803826213e-03 0.0000000000000000e+00  1.0409000329673290e-02 -1.1749999830499291e-03 0.0000000000000000e+00  1.4481999911367893e-02 9.3999999808147550e-04 0.0000000000000000e+00  1.1741999536752701e-02 -1.4939999673515558e-03 0.0000000000000000e+00  3.3443998545408249e-02 1.1803000234067440e-02 0.0000000000000000e+00  2.6348000392317772e-02 8.0439997836947441e-03 0.0000000000000000e+00  2.7473000809550285e-02 7.6750000007450581e-03 0.0000000000000000e+00  2.1399000659584999e-02 3.5979999229311943e-03 0.0000000000000000e+00  2.7120999991893768e-02 6.5999999642372131e-03 0.0000000000000000e+00  2.0341999828815460e-02 3.8560000248253345e-03 0.0000000000000000e+00  3.2519999891519547e-02 1.2389999814331532e-02 0.0000000000000000e+00  2.4449000135064125e-02 9.5560001209378242e-03 0.0000000000000000e+00  2.7867000550031662e-02 1.2174000032246113e-02 0.0000000000000000e+00  3.0636999756097794e-02 1.2532999739050865e-02 0.0000000000000000e+00  1.8216999247670174e-02 7.2499999077990651e-04 0.0000000000000000e+00  4.6930998563766479e-02 2.7666000649333000e-02 0.0000000000000000e+00  4.6971000730991364e-02 2.8526000678539276e-02 0.0000000000000000e+00  5.3858999162912369e-02 3.1374000012874603e-02 0.0000000000000000e+00  8.2500003278255463e-02 3.8979999721050262e-02 0.0000000000000000e+00  8.3411999046802521e-02 3.8444001227617264e-02 0.0000000000000000e+00  7.7745996415615082e-02 3.8137998431921005e-02 0.0000000000000000e+00  1.6745999455451965e-02 -4.7000001359265298e-05 0.0000000000000000e+00  7.0500001311302185e-03 -3.6700000055134296e-03 0.0000000000000000e+00  9.6899997442960739e-03 -3.2560001127421856e-03 0.0000000000000000e+00  6.1550000682473183e-03 -4.6979999169707298e-03 0.0000000000000000e+00  -6.4519997686147690e-03 2.7459999546408653e-03 0.0000000000000000e+00  -7.5550000183284283e-03 3.0219999607652426e-03 0.0000000000000000e+00  7.1400001645088196e-02 7.4983000755310059e-02 0.0000000000000000e+00  6.4145997166633606e-02 6.2359999865293503e-02 0.0000000000000000e+00  6.7089997231960297e-02 7.0695996284484863e-02 0.0000000000000000e+00  7.5710996985435486e-02 8.4321998059749603e-02 0.0000000000000000e+00  1.1069300025701523e-01 1.6767999529838562e-01 0.0000000000000000e+00  1.1183200031518936e-01 1.7399600148200989e-01 0.0000000000000000e+00  9.9606998264789581e-02 1.7440700531005859e-01 0.0000000000000000e+00  3.2474998384714127e-02 3.1727001070976257e-02 0.0000000000000000e+00  -2.6998000219464302e-02 -1.0653999634087086e-02 0.0000000000000000e+00  -2.7488999068737030e-02 -1.1389999650418758e-02 0.0000000000000000e+00  3.7161000072956085e-02 5.3741998970508575e-02 0.0000000000000000e+00  -2.7689000591635704e-02 -1.5147999860346317e-02 0.0000000000000000e+00  -2.7451999485492706e-02 -1.5859000384807587e-02 0.0000000000000000e+00  5.3711000829935074e-02 9.7663000226020813e-02 0.0000000000000000e+00  6.5416000783443451e-02 1.1043699830770493e-01 0.0000000000000000e+00  5.5748000741004944e-02 9.2679001390933990e-02 0.0000000000000000e+00  5.7712998241186142e-02 8.8358998298645020e-02 0.0000000000000000e+00  4.4518001377582550e-02 7.4700996279716492e-02 0.0000000000000000e+00  6.8426996469497681e-02 1.0591100156307220e-01 0.0000000000000000e+00  7.7642001211643219e-02 1.2319499999284744e-01 0.0000000000000000e+00  7.1800000965595245e-02 1.0174100100994110e-01 0.0000000000000000e+00  7.8493997454643250e-02 9.6620000898838043e-02 0.0000000000000000e+00  8.6069002747535706e-02 1.1412300169467926e-01 0.0000000000000000e+00  9.2972002923488617e-02 1.0861700028181076e-01 0.0000000000000000e+00  9.3125000596046448e-02 1.2049099802970886e-01 0.0000000000000000e+00  9.9380999803543091e-02 1.3518300652503967e-01 0.0000000000000000e+00  9.6785001456737518e-02 1.2413100153207779e-01 0.0000000000000000e+00  1.0339300334453583e-01 1.3872100412845612e-01 0.0000000000000000e+00  -1.6100000590085983e-02 0.0000000000000000e+00 0.0000000000000000e+00  -1.6351999714970589e-02 0.0000000000000000e+00 0.0000000000000000e+00  2.0659998990595341e-03 2.0510000176727772e-03 0.0000000000000000e+00  2.1550001110881567e-03 2.5049999821931124e-03 0.0000000000000000e+00  1.0066399723291397e-01 1.2435100227594376e-01 0.0000000000000000e+00  1.3629500567913055e-01 1.6235899925231934e-01 0.0000000000000000e+00  1.3624499738216400e-01 1.6883200407028198e-01 0.0000000000000000e+00  1.4283700287342072e-01 1.6347600519657135e-01 0.0000000000000000e+00  1.3012599945068359e-01 1.6749699413776398e-01 0.0000000000000000e+00  7.3225997388362885e-02 1.2768700718879700e-01 0.0000000000000000e+00  5.0942000001668930e-02 3.6435000598430634e-02 0.0000000000000000e+00  5.8267001062631607e-02 4.1661001741886139e-02 0.0000000000000000e+00  4.0816001594066620e-02 2.9293999075889587e-02 0.0000000000000000e+00  1.6717100143432617e-01 1.1644099652767181e-01 0.0000000000000000e+00  1.7280699312686920e-01 1.1688499897718430e-01 0.0000000000000000e+00  1.6625699400901794e-01 1.1083199828863144e-01 0.0000000000000000e+00  1.7266499996185303e-01 1.1137499660253525e-01 0.0000000000000000e+00  1.7815999686717987e-01 1.1671999841928482e-01 0.0000000000000000e+00  1.7110200226306915e-01 1.0520400106906891e-01 0.0000000000000000e+00  1.6409100592136383e-01 1.0446199774742126e-01 0.0000000000000000e+00  1.7379699647426605e-01 1.2136100232601166e-01 0.0000000000000000e+00  1.2343999929726124e-02 -1.9143000245094299e-02 0.0000000000000000e+00  -1.2706999666988850e-02 -7.1788996458053589e-02 0.0000000000000000e+00  1.2578000314533710e-02 -1.9377000629901886e-02 0.0000000000000000e+00  -1.2899000197649002e-02 -8.0739997327327728e-02 0.0000000000000000e+00  -1.5101999975740910e-02 -8.2287997007369995e-02 0.0000000000000000e+00  -1.8426999449729919e-02 -9.3074999749660492e-02 0.0000000000000000e+00  -1.8494000658392906e-02 -8.5295997560024261e-02 0.0000000000000000e+00  -1.8022000789642334e-02 -1.0189700126647949e-01 0.0000000000000000e+00  -2.2115999832749367e-02 -1.0373499989509583e-01 0.0000000000000000e+00  -2.2079000249505043e-02 -9.5207996666431427e-02 0.0000000000000000e+00  1.1823999695479870e-02 -1.8624000251293182e-02 0.0000000000000000e+00  -4.7469999641180038e-02 -7.9709000885486603e-02 0.0000000000000000e+00  -4.1290000081062317e-02 -7.1254000067710876e-02 0.0000000000000000e+00  -2.0963000133633614e-02 -2.1573999896645546e-02 0.0000000000000000e+00  -1.6618000343441963e-02 -1.8249999731779099e-02 0.0000000000000000e+00  -2.0865999162197113e-02 -2.3925000801682472e-02 0.0000000000000000e+00  -1.6835000365972519e-02 -2.0899999886751175e-02 0.0000000000000000e+00  -2.3024000227451324e-02 -2.7350999414920807e-02 0.0000000000000000e+00  -1.6420999541878700e-02 -1.1793999932706356e-02 0.0000000000000000e+00  -2.0760999992489815e-02 -1.4689000323414803e-02 0.0000000000000000e+00  -1.9300000742077827e-02 -1.1881999671459198e-02 0.0000000000000000e+00  -7.5474999845027924e-02 -1.0338199883699417e-01 0.0000000000000000e+00  -9.1746002435684204e-02 -1.5218000113964081e-01 0.0000000000000000e+00  -9.4449996948242188e-02 -1.5158000588417053e-01 0.0000000000000000e+00  -9.4696998596191406e-02 -1.4980700612068176e-01 0.0000000000000000e+00  -9.5282003283500671e-02 -1.4703699946403503e-01 0.0000000000000000e+00  -9.7363002598285675e-02 -1.4940999448299408e-01 0.0000000000000000e+00  -7.3224000632762909e-02 -1.4481200277805328e-01 0.0000000000000000e+00  -7.1240998804569244e-02 -1.4625599980354309e-01 0.0000000000000000e+00  -7.6071001589298248e-02 -1.5197399258613586e-01 0.0000000000000000e+00  -8.0242998898029327e-02 -1.5590399503707886e-01 0.0000000000000000e+00  -7.6638996601104736e-02 -1.5805000066757202e-01 0.0000000000000000e+00  -5.5151998996734619e-02 -1.0186699777841568e-01 0.0000000000000000e+00  -6.0093998908996582e-02 -1.1194600164890289e-01 0.0000000000000000e+00  -5.4062999784946442e-02 -1.0316199809312820e-01 0.0000000000000000e+00  -4.7880001366138458e-02 -9.4277001917362213e-02 0.0000000000000000e+00  -2.1260000765323639e-02 -8.6276002228260040e-02 0.0000000000000000e+00  -2.0874999463558197e-02 -7.0568002760410309e-02 0.0000000000000000e+00  -2.3210000246763229e-02 -7.0761002600193024e-02 0.0000000000000000e+00  2.0769999828189611e-03 -3.7600001087412238e-04 0.0000000000000000e+00  2.2670000325888395e-03 -7.5599999399855733e-04 0.0000000000000000e+00  2.7950000949203968e-03 -9.3199999537318945e-04 0.0000000000000000e+00  3.3629999961704016e-03 -1.1210000375285745e-03 0.0000000000000000e+00  2.3020000662654638e-03 8.0600002547726035e-04 0.0000000000000000e+00  1.2427999638020992e-02 7.0859999395906925e-03 0.0000000000000000e+00  1.6806000843644142e-02 9.2080002650618553e-03 0.0000000000000000e+00  8.4119997918605804e-03 4.9160001799464226e-03 0.0000000000000000e+00  1.6909999540075660e-03 3.9699999615550041e-04 0.0000000000000000e+00  -1.5109999803826213e-03 1.5109999803826213e-03 0.0000000000000000e+00  6.4039998687803745e-03 2.1840000990778208e-03 0.0000000000000000e+00  -1.5109999803826213e-03 1.5109999803826213e-03 0.0000000000000000e+00  -1.5109999803826213e-03 1.5109999803826213e-03 0.0000000000000000e+00  1.7133999615907669e-02 9.1730002313852310e-03 0.0000000000000000e+00  2.5551000609993935e-02 1.2419999577105045e-02 0.0000000000000000e+00  3.0424000695347786e-02 1.4627000316977501e-02 0.0000000000000000e+00  2.5800999253988266e-02 1.2915000319480896e-02 0.0000000000000000e+00  4.0155000984668732e-02 2.4614999070763588e-02 0.0000000000000000e+00  4.1462000459432602e-02 2.3267000913619995e-02 0.0000000000000000e+00  3.4669999033212662e-02 2.0052000880241394e-02 0.0000000000000000e+00  3.4129001200199127e-02 1.1269999668002129e-02 0.0000000000000000e+00  4.7563001513481140e-02 1.9173000007867813e-02 0.0000000000000000e+00  5.3190998733043671e-02 2.2839000448584557e-02 0.0000000000000000e+00  5.2267000079154968e-02 2.3192999884486198e-02 0.0000000000000000e+00  4.7235999256372452e-02 1.8249999731779099e-02 0.0000000000000000e+00  4.0722001343965530e-02 1.4322999864816666e-02 0.0000000000000000e+00  5.8127999305725098e-02 2.6296000927686691e-02 0.0000000000000000e+00  6.2040999531745911e-02 2.9415000230073929e-02 0.0000000000000000e+00  5.9964999556541443e-02 2.9285000637173653e-02 0.0000000000000000e+00  6.9426000118255615e-02 7.6852999627590179e-02 0.0000000000000000e+00  6.2089998275041580e-02 6.6243998706340790e-02 0.0000000000000000e+00  6.9191999733448029e-02 7.9163998365402222e-02 0.0000000000000000e+00  9.6612997353076935e-02 1.2123700231313705e-01 0.0000000000000000e+00  9.4410002231597900e-02 1.1502800136804581e-01 0.0000000000000000e+00  1.0175000131130219e-01 1.3160699605941772e-01 0.0000000000000000e+00  1.1232499778270721e-01 2.0205500721931458e-01 0.0000000000000000e+00  1.1533600091934204e-01 2.1738100051879883e-01 0.0000000000000000e+00  1.1244300007820129e-01 2.1033799648284912e-01 0.0000000000000000e+00  -1.5866000205278397e-02 -3.2487001270055771e-02 0.0000000000000000e+00  9.1128997504711151e-02 1.4593200385570526e-01 0.0000000000000000e+00  9.0195998549461365e-02 1.5566299855709076e-01 0.0000000000000000e+00  9.5449000597000122e-02 1.5398199856281281e-01 0.0000000000000000e+00  9.5301002264022827e-02 1.4341799914836884e-01 0.0000000000000000e+00  9.0458996593952179e-02 1.3826499879360199e-01 0.0000000000000000e+00  8.8800996541976929e-02 1.3000799715518951e-01 0.0000000000000000e+00  1.0897299647331238e-01 1.5429799258708954e-01 0.0000000000000000e+00  1.0572499781847000e-01 1.4307500422000885e-01 0.0000000000000000e+00  1.1118000000715256e-01 1.5941199660301208e-01 0.0000000000000000e+00  1.0726600140333176e-01 1.4775399863719940e-01 0.0000000000000000e+00  9.0172000229358673e-02 1.1805400252342224e-01 0.0000000000000000e+00  9.2349998652935028e-02 1.2963600456714630e-01 0.0000000000000000e+00  9.7305998206138611e-02 1.4120300114154816e-01 0.0000000000000000e+00  1.0046699643135071e-01 1.5418100357055664e-01 0.0000000000000000e+00  1.0368999838829041e-01 1.6623300313949585e-01 0.0000000000000000e+00  1.0527999699115753e-01 1.5891499817371368e-01 0.0000000000000000e+00  9.5645003020763397e-02 1.3098299503326416e-01 0.0000000000000000e+00  -7.4156999588012695e-02 6.8888001143932343e-02 0.0000000000000000e+00  -8.0839999020099640e-02 5.7089000940322876e-02 0.0000000000000000e+00  -8.2881003618240356e-02 7.0880003273487091e-02 0.0000000000000000e+00  -5.7411998510360718e-02 1.0806600004434586e-01 0.0000000000000000e+00  -6.0897000133991241e-02 9.7742997109889984e-02 0.0000000000000000e+00  -6.8163000047206879e-02 9.3084000051021576e-02 0.0000000000000000e+00  -6.5755002200603485e-02 8.1574998795986176e-02 0.0000000000000000e+00  -7.7854000031948090e-02 -7.1831002831459045e-02 0.0000000000000000e+00  -6.8099997937679291e-02 -6.0070998966693878e-02 0.0000000000000000e+00  -7.0894002914428711e-02 -6.4234003424644470e-02 0.0000000000000000e+00  -8.3195999264717102e-02 -7.6365999877452850e-02 0.0000000000000000e+00  -1.0249099880456924e-01 -9.7055003046989441e-02 0.0000000000000000e+00  -1.2541900575160980e-01 -1.0216999799013138e-01 0.0000000000000000e+00  -1.2586200237274170e-01 -1.0816100239753723e-01 0.0000000000000000e+00  -1.3301999866962433e-01 -1.0673800110816956e-01 0.0000000000000000e+0