<?xml version="1.0"?>
<VTKFile type="UnstructuredGrid"  version="0.1"  >
<UnstructuredGrid>
<Piece  NumberOfPoints="6340" NumberOfCells="12376">
<Points>
<DataArray  type="Float64"  NumberOfComponents="3"  format="ascii">-0.01943299919366837 0.0208320003002882 0  -0.02023500017821789 0.02150800079107285 0  -0.02043000049889088 0.0205099992454052 0  -0.021119000390172 0.0213249996304512 0  -0.01964499987661839 0.01991399936378002 0  -0.01929900050163269 0.02170700021088123 0  -0.01990200020372868 0.02246700040996075 0  -0.01941799931228161 0.02327100001275539 0  -0.02049200050532818 0.02327699959278107 0  -0.01882199943065643 0.02242800034582615 0  -0.007991000078618526 0.0186579991132021 0  -0.008646000176668167 0.01945400051772594 0  -0.008969999849796295 0.01851700060069561 0  -0.009631999768316746 0.01935099996626377 0  -0.02649500034749508 0.08028099685907364 0  -0.02745700068771839 0.08088299632072449 0  -0.02762199938297272 0.08009400218725204 0  -0.02727100066840649 0.0734340026974678 0  -0.02786399982869625 0.07430999726057053 0  -0.02811799943447113 0.07338999956846237 0  -0.02883999980986118 0.07398000359535217 0  -0.01278399955481291 0.09053999930620193 0  -0.01378300040960312 0.09052500128746033 0  -0.01325100008398294 0.08967400342226028 0  -0.02062099985778332 0.08544000238180161 0  -0.01961000077426434 0.08543600142002106 0  -0.02015000022947788 0.0862710028886795 0  -0.02008200064301491 0.08460299670696259 0  -0.02258200012147427 0.02500100061297417 0  -0.02155200019478798 0.02497600018978119 0  -0.02206999994814396 0.02586700022220612 0  -0.02253899909555912 0.02676000073552132 0  -0.02312099933624268 0.02590700052678585 0  -0.02103099972009659 0.02584500052034855 0  -0.02051799930632114 0.02496800012886524 0  -0.01947399973869324 0.02496100030839443 0  -0.01999999955296516 0.02583100087940693 0  -0.02205600030720234 0.02408800087869167 0  -0.02318800054490566 0.02418199926614761 0  -0.02239000052213669 0.02283000014722347 0  -0.02177299931645393 0.02209899947047234 0  -0.02152400091290474 0.02318999916315079 0  -0.02087800018489361 0.02235599979758263 0  -0.01590700075030327 0.02215000055730343 0  -0.0164209995418787 0.02126600034534931 0  -0.01537800021469593 0.02129499986767769 0  -0.01688000001013279 0.02222000062465668 0  -0.01789600029587746 0.02223300002515316 0  -0.01739900000393391 0.0231110006570816 0  0.04309099912643433 0.0841199979186058 0  0.04278599843382835 0.08319699764251709 0  0.04411299899220467 0.08353199809789658 0  0.04562399908900261 0.09588500112295151 0  0.04643100127577782 0.09629900008440018 0  0.04540299996733665 0.09679000079631805 0  0.02885200083255768 0.1046850010752678 0  0.02893299981951714 0.1037349998950958 0  0.02986500039696693 0.104202002286911 0  0.02792200073599815 0.1051279976963997 0  0.02797600068151951 0.1039749979972839 0  -0.004792000167071819 0.09955199807882309 0  -0.003745999885722995 0.09956999868154526 0  -0.004279000218957663 0.1004370003938675 0  -0.003231999929994345 0.1004519984126091 0  -0.01758600026369095 0.1007189974188805 0  -0.01808599941432476 0.09996599704027176 0  -0.01689700037240982 0.1000809967517853 0  -0.01861600019037724 0.1009240001440048 0  -0.01249399967491627 0.1072290018200874 0  -0.01261799968779087 0.1081829965114594 0  -0.01339500024914742 0.1073850020766258 0  -0.009433000348508358 0.09852900356054306 0  -0.008400999940931797 0.0985649973154068 0  -0.008934999816119671 0.09943100064992905 0  -0.01046499982476234 0.09849099814891815 0  -0.009929999709129333 0.09762600064277649 0  -0.01096099987626076 0.09758999943733215 0  -0.0131029998883605 0.1009979993104935 0  -0.01359600014984608 0.1018270030617714 0  -0.01416900008916855 0.1009460017085075 0  -0.01203799992799759 0.09931100159883499 0  -0.0130780003964901 0.09927800297737122 0  -0.01252800039947033 0.09842099994421005 0  0.01352200005203485 0.09507100284099579 0  0.01454500015825033 0.09507100284099579 0  0.01403400022536516 0.09593100100755692 0  0.007902000099420547 0.07872000336647034 0  0.00839299988001585 0.07784900069236755 0  0.008923999965190887 0.07871899753808975 0  -0.007710000034421682 0.01781000010669231 0  -0.006907999981194735 0.01806299947202206 0  -0.008557000197470188 0.01765000075101852 0  -0.009441999718546867 0.01748299971222878 0  -0.01302000042051077 0.01724000088870525 0  -0.01327299978584051 0.01829300075769424 0  -0.01387799996882677 0.01739099994301796 0  -0.01245999988168478 0.01814999990165234 0  -0.01248299982398748 0.01915699988603592 0  -0.01165399979799986 0.01836200058460236 0  -0.0120219998061657 0.02205099910497665 0  -0.01250299997627735 0.02109299972653389 0  -0.01157199963927269 0.02117599919438362 0  -0.01111800037324429 0.02035699971020222 0  -0.01057399995625019 0.02121100015938282 0  -0.01204899977892637 0.02017500065267086 0  -0.01296699978411198 0.02202500030398369 0  -0.01439100038260221 0.02120300009846687 0  -0.01489400025457144 0.02213500067591667 0  -0.01391599979251623 0.02206600084900856 0  -0.009127000346779823 0.02030500024557114 0  -0.0109230000525713 0.03093199990689754 0  -0.01142700016498566 0.03005699999630451 0  -0.01043799985200167 0.03004799969494343 0  -0.005537000019103289 0.02997599914669991 0  -0.006012999918311834 0.03086699917912483 0  -0.006510000210255384 0.02999399974942207 0  -0.008185000158846378 0.02041600085794926 0  -0.005752999801188707 0.01999600045382977 0  -0.006713999900966883 0.01978999935090542 0  -0.005956999957561493 0.01915699988603592 0  -0.006039999891072512 0.01833700016140938 0  -0.005080000031739473 0.01864000037312508 0  0.04733800143003464 0.09186500310897827 0  0.04822799935936928 0.09142500162124634 0  0.04794299975037575 0.09255500137805939 0  0.04687400162220001 0.09264999628067017 0  0.01653599925339222 0.05940800160169601 0  0.01756699942052364 0.05935399979352951 0  0.01708200015127659 0.06022699922323227 0  0.03031699918210506 0.04498999938368797 0  0.03080200031399727 0.04396099969744682 0  0.03126300126314163 0.04470499977469444 0  0.03246400132775307 0.04926199838519096 0  0.03339200094342232 0.04862700030207634 0  0.03375300019979477 0.04938599839806557 0  0.03224800154566765 0.05270300060510635 0  0.03127000108361244 0.05274099856615067 0  0.03180700168013573 0.05182800069451332 0  0.03134800121188164 0.05099200084805489 0  0.03238600119948387 0.0509210005402565 0  0.0307960007339716 0.05189000070095062 0  0.03026900067925453 0.05279099941253662 0  0.0302910003811121 0.05107599869370461 0  0.02973400056362152 0.05028500035405159 0  0.0292349997907877 0.05114699900150299 0  0.02866999991238117 0.05034599825739861 0  0.04486899822950363 0.09421200305223465 0  0.04380799829959869 0.09421499818563461 0  0.04433299973607063 0.09336999803781509 0  0.04329200088977814 0.09334000200033188 0  0.008124999701976776 0.0253320001065731 0  0.008917000144720078 0.02578599937260151 0  0.00813400000333786 0.0263849999755621 0  0.008996999822556973 0.02673500031232834 0  0.02818099968135357 0.05121000111103058 0  0.02407499961555004 0.0531029999256134 0  0.02358699962496758 0.0539730004966259 0  0.02303799986839294 0.05315199866890907 0  0.02462299913167953 0.05392500013113022 0  0.03077399916946888 0.05364400148391724 0  0.01948300004005432 0.03620500117540359 0  0.01857100054621696 0.03605600073933601 0  0.01900400035083294 0.03518199920654297 0  0.01379899960011244 0.04131799936294556 0  0.01281700003892183 0.04131900146603584 0  0.01330299954861403 0.0404449999332428 0  0.01231999974697828 0.04044700041413307 0  0.01183499954640865 0.04131999984383583 0  0.01182099990546703 0.03957299888134003 0  0.01280499994754791 0.03957299888134003 0  0.01331499963998795 0.04219299927353859 0  -0.02867100015282631 0.07487700134515762 0  -0.02753200009465218 0.07514599710702896 0  -0.02851600013673306 0.07569699734449387 0  -0.02687600068747997 0.07433900237083435 0  -0.02644100040197372 0.07517100125551224 0  -0.02538199909031391 0.07520099729299545 0  -0.02583299949765205 0.07603199779987335 0  -0.02483100071549416 0.07437299937009811 0  -0.02434499934315681 0.07521700114011765 0  -0.02483499981462955 0.07605099678039551 0  -0.02897600084543228 0.07304400205612183 0  -0.01967200078070164 0.08710099756717682 0  -0.02068700082600117 0.08710300177335739 0  -0.0184749998152256 0.09650199860334396 0  -0.01948099955916405 0.09652700275182724 0  -0.01895000040531158 0.09565799683332443 0  -0.01995100080966949 0.09568800032138824 0  -0.01941999979317188 0.09481299668550491 0  -0.01716299913823605 0.09923099726438522 0  -0.01618500053882599 0.09923800081014633 0  -0.01580099947750568 0.100100003182888 0  -0.01424800045788288 0.08966200053691864 0  -0.01195299997925758 0.08290199935436249 0  -0.01094700023531914 0.08289899677038193 0  -0.01148399990051985 0.08373899757862091 0  -0.0110259996727109 0.08458700031042099 0  -0.01048499997705221 0.08374200016260147 0  -0.01592499949038029 0.08122699707746506 0  -0.01640200056135654 0.08038900047540665 0  -0.01539400033652782 0.08038900047540665 0  -0.0143860001116991 0.08038800209760666 0  -0.01486099977046251 0.07954700291156769 0  -0.01907300017774105 0.08459900319576263 0  -0.01853800006210804 0.08375699818134308 0  -0.0195470005273819 0.08375799655914307 0  -0.02055799961090088 0.08376199752092361 0  -0.02536300010979176 0.07689400017261505 0  -0.02585599943995476 0.07944600284099579 0  -0.02543500065803528 0.08028300106525421 0  -0.02361099980771542 0.02489699982106686 0  -0.02401999942958355 0.02559000067412853 0  -0.02432500012218952 0.02629799954593182 0  -0.02465399913489819 0.02706100046634674 0  -0.02355599962174892 0.02684400044381618 0  -0.01998200081288815 0.02411399967968464 0  -0.01892800070345402 0.02409500069916248 0  -0.0210379995405674 0.02410200051963329 0  -0.02277700044214725 0.02348599955439568 0  -0.01735600084066391 0.01843800023198128 0  -0.01697699911892414 0.01920299977064133 0  -0.01814999990165234 0.01878000050783157 0  -0.0165410004556179 0.01808799989521503 0  -0.01837100088596344 0.02322700060904026 0  -0.01639
[...]
<PointData  Vectors="velocity"> 
<DataArray  type="Float64"  Name="velocity"  NumberOfComponents="3" format="ascii">1.7290000105276704e-03 5.1400001393631101e-04 0.0000000000000000e+00  1.3079999480396509e-03 3.2600000849924982e-04 0.0000000000000000e+00  -1.5109999803826213e-03 7.5599999399855733e-04 0.0000000000000000e+00  -9.8000001162290573e-04 4.9000000581145287e-04 0.0000000000000000e+00  -2.2909999825060368e-03 4.9499998567625880e-04 0.0000000000000000e+00  2.8160000219941139e-03 1.0470000561326742e-03 0.0000000000000000e+00  2.5329999625682831e-03 9.2199997743591666e-04 0.0000000000000000e+00  3.7430000957101583e-03 1.3589999871328473e-03 0.0000000000000000e+00  2.1939999423921108e-03 7.4699998367577791e-04 0.0000000000000000e+00  4.2269998230040073e-03 1.6049999976530671e-03 0.0000000000000000e+00  9.6450001001358032e-03 1.8870000494644046e-03 0.0000000000000000e+00  1.7270000651478767e-02 5.2829999476671219e-03 0.0000000000000000e+00  1.0378000326454639e-02 2.3089998867362738e-03 0.0000000000000000e+00  1.5530000440776348e-02 4.8929997719824314e-03 0.0000000000000000e+00  -1.0986999608576298e-02 -1.6301000490784645e-02 0.0000000000000000e+00  3.5550000611692667e-03 -2.4664999917149544e-02 0.0000000000000000e+00  4.0250001475214958e-03 -2.4429999291896820e-02 0.0000000000000000e+00  -1.4000999741256237e-02 -3.9287999272346497e-02 0.0000000000000000e+00  -1.2728000059723854e-02 -2.9967999085783958e-02 0.0000000000000000e+00  -1.1210000142455101e-02 -3.0047999694943428e-02 0.0000000000000000e+00  9.0659996494650841e-03 -2.1910000592470169e-02 0.0000000000000000e+00  -1.3152700662612915e-01 -7.4670001864433289e-02 0.0000000000000000e+00  -1.1339700222015381e-01 -5.7877998799085617e-02 0.0000000000000000e+00  -1.2938199937343597e-01 -8.2773000001907349e-02 0.0000000000000000e+00  -4.0826998651027679e-02 -3.8210999220609665e-02 0.0000000000000000e+00  -5.1507998257875443e-02 -5.0503000617027283e-02 0.0000000000000000e+00  -4.3104000389575958e-02 -3.4251000732183456e-02 0.0000000000000000e+00  -4.7834999859333038e-02 -5.3403999656438828e-02 0.0000000000000000e+00  5.4500001715496182e-04 -8.0999998317565769e-05 0.0000000000000000e+00  1.3429999817162752e-03 2.3000000510364771e-04 0.0000000000000000e+00  6.3199998112395406e-04 -2.5199999799951911e-04 0.0000000000000000e+00  -1.9999999494757503e-05 -6.7199999466538429e-04 0.0000000000000000e+00  1.2300000526010990e-04 -3.6299999919719994e-04 0.0000000000000000e+00  1.5930000226944685e-03 5.8000001445179805e-05 0.0000000000000000e+00  2.4389999452978373e-03 5.9599999804049730e-04 0.0000000000000000e+00  3.8850000128149986e-03 1.0389999952167273e-03 0.0000000000000000e+00  2.8679999522864819e-03 4.1000000783242285e-04 0.0000000000000000e+00  8.7899999925866723e-04 1.5100000018719584e-04 0.0000000000000000e+00  1.1099999537691474e-03 -3.6999999429099262e-04 0.0000000000000000e+00  0.0000000000000000e+00 0.0000000000000000e+00 0.0000000000000000e+00  -4.7599998652003706e-04 2.3799999326001853e-04 0.0000000000000000e+00  1.0379999876022339e-03 2.3900000087451190e-04 0.0000000000000000e+00  1.2219999916851521e-03 3.1500001205131412e-04 0.0000000000000000e+00  1.0289999656379223e-02 3.9499998092651367e-03 0.0000000000000000e+00  8.2179997116327286e-03 3.2649999484419823e-03 0.0000000000000000e+00  1.0526999831199646e-02 4.0719998069107533e-03 0.0000000000000000e+00  8.0049997195601463e-03 3.0439998954534531e-03 0.0000000000000000e+00  5.8269998989999294e-03 2.2229999303817749e-03 0.0000000000000000e+00  7.3939999565482140e-03 2.6549999602138996e-03 0.0000000000000000e+00  3.9260000921785831e-03 1.8123999238014221e-02 0.0000000000000000e+00  5.1839998923242092e-03 2.0542999729514122e-02 0.0000000000000000e+00  3.7666000425815582e-02 -1.6860999166965485e-02 0.0000000000000000e+00  8.0859996378421783e-03 1.6982000321149826e-02 0.0000000000000000e+00  6.7119998857378960e-03 1.5505000017583370e-02 0.0000000000000000e+00  6.6599999554455280e-03 1.8445000052452087e-02 0.0000000000000000e+00  -6.7363999783992767e-02 -1.0661000385880470e-02 0.0000000000000000e+00  -6.1889998614788055e-02 -5.7740001939237118e-03 0.0000000000000000e+00  -6.1388000845909119e-02 -1.8729999428614974e-03 0.0000000000000000e+00  -7.2416000068187714e-02 -1.8820999190211296e-02 0.0000000000000000e+00  -6.7592002451419830e-02 -1.3075999915599823e-02 0.0000000000000000e+00  -4.2672999203205109e-02 -6.9444999098777771e-02 0.0000000000000000e+00  -5.7705000042915344e-02 -8.6741998791694641e-02 0.0000000000000000e+00  -2.6165999472141266e-02 -6.5443001687526703e-02 0.0000000000000000e+00  -4.0784001350402832e-02 -8.1529997289180756e-02 0.0000000000000000e+00  5.9174999594688416e-02 7.6563000679016113e-02 0.0000000000000000e+00  5.6733999401330948e-02 7.6422996819019318e-02 0.0000000000000000e+00  5.7016998529434204e-02 7.7611997723579407e-02 0.0000000000000000e+00  -2.7990000322461128e-02 -2.6179000735282898e-02 0.0000000000000000e+00  5.2981998771429062e-02 5.5590000003576279e-02 0.0000000000000000e+00  -3.3998001366853714e-02 -1.8602000549435616e-02 0.0000000000000000e+00  -3.3998001366853714e-02 -1.9140999764204025e-02 0.0000000000000000e+00  -9.7549995407462120e-03 1.6060000052675605e-03 0.0000000000000000e+00  -2.1898999810218811e-02 -1.6437999904155731e-02 0.0000000000000000e+00  9.6680000424385071e-03 4.8090000636875629e-03 0.0000000000000000e+00  1.3640000252053142e-03 1.8629999831318855e-02 0.0000000000000000e+00  -2.5182999670505524e-02 -1.4690000098198652e-03 0.0000000000000000e+00  -1.2473000213503838e-02 1.6793999820947647e-02 0.0000000000000000e+00  5.8630999177694321e-02 6.6711001098155975e-02 0.0000000000000000e+00  6.4140997827053070e-02 7.1154996752738953e-02 0.0000000000000000e+00  6.0233999043703079e-02 7.3218002915382385e-02 0.0000000000000000e+00  3.5007998347282410e-02 4.8526998609304428e-02 0.0000000000000000e+00  4.1297998279333115e-02 5.9583000838756561e-02 0.0000000000000000e+00  2.0082000643014908e-02 4.6580001711845398e-02 0.0000000000000000e+00  -2.5635001063346863e-01 -5.6237000972032547e-02 0.0000000000000000e+00  -2.4564200639724731e-01 -4.2566999793052673e-02 0.0000000000000000e+00  -2.4152000248432159e-01 -5.6047998368740082e-02 0.0000000000000000e+00  -6.6960997879505157e-02 -5.5654998868703842e-02 0.0000000000000000e+00  -5.2028000354766846e-02 -3.8940001279115677e-02 0.0000000000000000e+00  -6.1994001269340515e-02 -3.3546999096870422e-02 0.0000000000000000e+00  -1.4355000108480453e-02 -9.0659996494650841e-03 0.0000000000000000e+00  -1.5277000144124031e-02 -9.9879996851086617e-03 0.0000000000000000e+00  -1.3629999943077564e-02 -8.1000002101063728e-03 0.0000000000000000e+00  -1.2873999774456024e-02 -7.0910002104938030e-03 0.0000000000000000e+00  -9.0659996494650841e-03 -3.0219999607652426e-03 0.0000000000000000e+00  6.0640000738203526e-03 7.9700001515448093e-04 0.0000000000000000e+00  -8.3240000531077385e-03 -2.2789998911321163e-03 0.0000000000000000e+00  6.9070002064108849e-03 1.0470000561326742e-03 0.0000000000000000e+00  9.6180001273751259e-03 2.5460000615566969e-03 0.0000000000000000e+00  8.8809998705983162e-03 2.0300000905990601e-03 0.0000000000000000e+00  1.8486000597476959e-02 6.5239998511970043e-03 0.0000000000000000e+00  1.4708999544382095e-02 5.1359999924898148e-03 0.0000000000000000e+00  1.6693999990820885e-02 5.7720001786947250e-03 0.0000000000000000e+00  1.5150999650359154e-02 5.0470000132918358e-03 0.0000000000000000e+00  1.8737999722361565e-02 6.2600001692771912e-03 0.0000000000000000e+00  1.3089999556541443e-02 4.2900000698864460e-03 0.0000000000000000e+00  1.6505999490618706e-02 6.0339998453855515e-03 0.0000000000000000e+00  1.1924000456929207e-02 4.3730000033974648e-03 0.0000000000000000e+00  1.2842000462114811e-02 4.9649998545646667e-03 0.0000000000000000e+00  1.4969999901950359e-02 5.6969998404383659e-03 0.0000000000000000e+00  1.9538000226020813e-02 6.3020000234246254e-03 0.0000000000000000e+00  4.1859999299049377e-02 -5.4569998756051064e-03 0.0000000000000000e+00  3.7693001329898834e-02 -4.1450001299381256e-03 0.0000000000000000e+00  4.2711000889539719e-02 -1.4699999883305281e-04 0.0000000000000000e+00  6.1354998499155045e-02 2.5896999984979630e-02 0.0000000000000000e+00  6.3180997967720032e-02 2.2701000794768333e-02 0.0000000000000000e+00  5.8766998350620270e-02 2.0999999716877937e-02 0.0000000000000000e+00  2.2035000845789909e-02 7.0870001800358295e-03 0.0000000000000000e+00  1.8534999340772629e-02 5.4390002042055130e-03 0.0000000000000000e+00  1.8417000770568848e-02 5.5590001866221428e-03 0.0000000000000000e+00  8.2440003752708435e-03 1.7790000420063734e-03 0.0000000000000000e+00  -1.6272999346256256e-02 -1.0985000059008598e-02 0.0000000000000000e+00  -1.7377000302076340e-02 -1.2087999843060970e-02 0.0000000000000000e+00  5.5680000223219395e-03 7.6729999855160713e-03 0.0000000000000000e+00  4.3440000154078007e-03 5.2339998073875904e-03 0.0000000000000000e+00  5.6219999678432941e-03 7.6790000312030315e-03 0.0000000000000000e+00  6.6370000131428242e-03 9.8050003871321678e-03 0.0000000000000000e+00  1.0625900328159332e-01 1.1096099764108658e-01 0.0000000000000000e+00  1.0452599823474884e-01 1.1777400225400925e-01 0.0000000000000000e+00  1.0293900221586227e-01 1.1640899628400803e-01 0.0000000000000000e+00  2.5915000587701797e-02 3.4830000251531601e-02 0.0000000000000000e+00  -2.0721999928355217e-02 -2.3976000025868416e-02 0.0000000000000000e+00  -1.9005000591278076e-02 -2.4467000737786293e-02 0.0000000000000000e+00  2.5391999632120132e-02 5.1410999149084091e-02 0.0000000000000000e+00  -1.3296999968588352e-02 -2.6443000882863998e-02 0.0000000000000000e+00  -1.2349000200629234e-02 -2.6443000882863998e-02 0.0000000000000000e+00  3.8267001509666443e-02 7.8890003263950348e-02 0.0000000000000000e+00  4.5372001826763153e-02 8.7398000061511993e-02 0.0000000000000000e+00  3.9081998169422150e-02 7.5924001634120941e-02 0.0000000000000000e+00  3.9820998907089233e-02 7.3417998850345612e-02 0.0000000000000000e+00  3.1998999416828156e-02 6.4222000539302826e-02 0.0000000000000000e+00  4.6601999551057816e-02 8.4749996662139893e-02 0.0000000000000000e+00  5.2629001438617706e-02 9.5260001718997955e-02 0.0000000000000000e+00  4.7935999929904938e-02 8.2552000880241394e-02 0.0000000000000000e+00  4.9855001270771027e-02 8.0583997070789337e-02 0.0000000000000000e+00  5.5904999375343323e-02 9.0547002851963043e-02 0.0000000000000000e+00  5.8637998998165131e-02 8.7961003184318542e-02 0.0000000000000000e+00  9.1960001736879349e-03 1.7144000157713890e-02 0.0000000000000000e+00  9.7859995439648628e-03 2.0457999780774117e-02 0.0000000000000000e+00  9.3599995598196983e-03 1.7697999253869057e-02 0.0000000000000000e+00  9.6969995647668839e-03 2.1370999515056610e-02 0.0000000000000000e+00  -2.6676999405026436e-02 -1.4875999651849270e-02 0.0000000000000000e+00  -2.6929000392556190e-02 -1.4623000286519527e-02 0.0000000000000000e+00  8.0620003864169121e-03 4.1430001147091389e-03 0.0000000000000000e+00  8.5359998047351837e-03 4.2659998871386051e-03 0.0000000000000000e+00  6.3603997230529785e-02 9.7002997994422913e-02 0.0000000000000000e+00  8.9124001562595367e-02 1.1789000034332275e-01 0.0000000000000000e+00  9.1055996716022491e-02 1.2144999951124191e-01 0.0000000000000000e+00  9.4129003584384918e-02 1.1706399917602539e-01 0.0000000000000000e+00  8.6552001535892487e-02 1.2172800302505493e-01 0.0000000000000000e+00  5.0733998417854309e-02 9.7911000251770020e-02 0.0000000000000000e+00  4.1563000530004501e-02 2.4690000340342522e-02 0.0000000000000000e+00  4.5820001512765884e-02 2.6488000527024269e-02 0.0000000000000000e+00  3.5525999963283539e-02 2.0117999985814095e-02 0.0000000000000000e+00  1.0987599939107895e-01 5.5456001311540604e-02 0.0000000000000000e+00  1.1324500292539597e-01 5.4584000259637833e-02 0.0000000000000000e+00  1.0762199759483337e-01 5.2391998469829559e-02 0.0000000000000000e+00  1.1097399890422821e-01 5.2007999271154404e-02 0.0000000000000000e+00  1.1628100275993347e-01 5.3840998560190201e-02 0.0000000000000000e+00  1.0731499642133713e-01 4.9725998193025589e-02 0.0000000000000000e+00  1.0386899858713150e-01 4.9717999994754791e-02 0.0000000000000000e+00  1.1495000123977661e-01 5.7309001684188843e-02 0.0000000000000000e+00  8.2989996299147606e-03 -2.2165000438690186e-02 0.0000000000000000e+00  -1.3655000366270542e-02 -3.0047999694943428e-02 0.0000000000000000e+00  7.5969998724758625e-03 -2.2399000823497772e-02 0.0000000000000000e+00  -1.6124999150633812e-02 -4.0164001286029816e-02 0.0000000000000000e+00  -1.8664000555872917e-02 -4.2070999741554260e-02 0.0000000000000000e+00  -2.3842999711632729e-02 -5.5031999945640564e-02 0.0000000000000000e+00  -1.9536999985575676e-02 -4.4461999088525772e-02 0.0000000000000000e+00  -2.5281999260187149e-02 -6.6395998001098633e-02 0.0000000000000000e+00  -2.9201999306678772e-02 -6.9314002990722656e-02 0.0000000000000000e+00  -2.6510000228881836e-02 -5.7670999318361282e-02 0.0000000000000000e+00  9.8569998517632484e-03 -2.1646000444889069e-02 0.0000000000000000e+00  -4.4344000518321991e-02 -3.0225999653339386e-02 0.0000000000000000e+00  -3.1899001449346542e-02 -1.9331999123096466e-02 0.0000000000000000e+00  3.3897999674081802e-02 6.6440999507904053e-02 0.0000000000000000e+00  3.7827998399734497e-02 6.5569996833801270e-02 0.0000000000000000e+00  2.6774000376462936e-02 6.0720000416040421e-02 0.0000000000000000e+00  3.3946998417377472e-02 6.1305999755859375e-02 0.0000000000000000e+00  1.6813000664114952e-02 5.4150000214576721e-02 0.0000000000000000e+00  5.3468998521566391e-02 7.6664000749588013e-02 0.0000000000000000e+00  5.2374001592397690e-02 7.6693996787071228e-02 0.0000000000000000e+00  5.6621998548507690e-02 7.7382996678352356e-02 0.0000000000000000e+00  -1.1172399669885635e-01 -6.5292999148368835e-02 0.0000000000000000e+00  -1.3778500258922577e-01 -2.0121900737285614e-01 0.0000000000000000e+00  -1.4638899266719818e-01 -2.1477499604225159e-01 0.0000000000000000e+00  -1.4837899804115295e-01 -2.0034900307655334e-01 0.0000000000000000e+00  -1.5948699414730072e-01 -1.9824099540710449e-01 0.0000000000000000e+00  -1.5726800262928009e-01 -2.1358999609947205e-01 0.0000000000000000e+00  -9.6614003181457520e-02 -1.5616500377655029e-01 0.0000000000000000e+00  -9.2106997966766357e-02 -1.5629300475120544e-01 0.0000000000000000e+00  -1.0038000345230103e-01 -1.7225900292396545e-01 0.0000000000000000e+00  -1.0823500156402588e-01 -1.8744699656963348e-01 0.0000000000000000e+00  -1.0086599737405777e-01 -1.8666400015354156e-01 0.0000000000000000e+00  -5.8940999209880829e-02 -6.7649997770786285e-02 0.0000000000000000e+00  -6.9560997188091278e-02 -8.6222000420093536e-02 0.0000000000000000e+00  -5.6850001215934753e-02 -7.0083998143672943e-02 0.0000000000000000e+00  -4.5161999762058258e-02 -5.5962000042200089e-02 0.0000000000000000e+00  -2.1431000903248787e-02 -4.5403998345136642e-02 0.0000000000000000e+00  -1.4601999893784523e-02 -2.5826999917626381e-02 0.0000000000000000e+00  -1.6281999647617340e-02 -2.5719000026583672e-02 0.0000000000000000e+00  1.6980000073090196e-03 -5.6600000243633986e-04 0.0000000000000000e+00  2.2670000325888395e-03 -7.5599999399855733e-04 0.0000000000000000e+00  2.4429999757558107e-03 -1.1080000549554825e-03 0.0000000000000000e+00  2.6320000179111958e-03 -1.4870000304654241e-03 0.0000000000000000e+00  -2.4900000425986946e-04 -6.0199998551979661e-04 0.0000000000000000e+00  3.1290000770241022e-03 1.0089999996125698e-03 0.0000000000000000e+00  4.7920001670718193e-03 1.5739999944344163e-03 0.0000000000000000e+00  1.8179999897256494e-03 5.3600000683218241e-04 0.0000000000000000e+00  5.3800002206116915e-04 -1.7899999511428177e-04 0.0000000000000000e+00  -4.7340001910924911e-03 -2.3900000087451190e-04 0.0000000000000000e+00  3.1300000846385956e-03 8.5100001888349652e-04 0.0000000000000000e+00  -3.7779998965561390e-03 0.0000000000000000e+00 0.0000000000000000e+00  -5.7149999774992466e-03 -4.8399998922832310e-04 0.0000000000000000e+00  5.5249999277293682e-03 1.9859999883919954e-03 0.0000000000000000e+00  9.6359997987747192e-03 3.4910000395029783e-03 0.0000000000000000e+00  1.1189999990165234e-02 3.7499999161809683e-03 0.0000000000000000e+00  8.7869996204972267e-03 2.9160000849515200e-03 0.0000000000000000e+00  3.6501999944448471e-02 -9.4710001721978188e-03 0.0000000000000000e+00  4.0337000042200089e-02 -1.1707999743521214e-02 0.0000000000000000e+00  3.4781999886035919e-02 -1.5420000068843365e-02 0.0000000000000000e+00  2.0532000809907913e-02 6.8970001302659512e-03 0.0000000000000000e+00  3.0044000595808029e-02 9.0749999508261681e-03 0.0000000000000000e+00  3.4876998513936996e-02 1.0271999984979630e-02 0.0000000000000000e+00  3.1339000910520554e-02 8.6529999971389771e-03 0.0000000000000000e+00  3.2375998795032501e-02 1.0258999653160572e-02 0.0000000000000000e+00  2.7401000261306763e-02 8.6059998720884323e-03 0.0000000000000000e+00  3.8949999958276749e-02 1.1646999977529049e-02 0.0000000000000000e+00  4.2723000049591064e-02 1.3229000382125378e-02 0.0000000000000000e+00  3.9280999451875687e-02 9.8289996385574341e-03 0.0000000000000000e+00  6.4059998840093613e-03 9.6930004656314850e-03 0.0000000000000000e+00  5.3130001761019230e-03 8.4729995578527451e-03 0.0000000000000000e+00  5.9620002284646034e-03 1.0421999730169773e-02 0.0000000000000000e+00  6.4090001396834850e-03 1.7723999917507172e-02 0.0000000000000000e+00  7.5210002250969410e-03 1.6071999445557594e-02 0.0000000000000000e+00  7.5739999301731586e-03 2.0277999341487885e-02 0.0000000000000000e+00  -1.1532999575138092e-02 5.9773001819849014e-02 0.0000000000000000e+00  -1.6992999240756035e-02 6.9564998149871826e-02 0.0000000000000000e+00  -1.4314999803900719e-02 6.7883998155593872e-02 0.0000000000000000e+00  3.5509001463651657e-02 -1.6620999202132225e-02 0.0000000000000000e+00  5.6179999373853207e-03 2.4156000465154648e-02 0.0000000000000000e+00  4.2820000089704990e-03 2.6809999719262123e-02 0.0000000000000000e+00  7.4880002066493034e-03 2.5779999792575836e-02 0.0000000000000000e+00  8.4119997918605804e-03 2.2987000644207001e-02 0.0000000000000000e+00  6.1920001171529293e-03 2.2289000451564789e-02 0.0000000000000000e+00  6.4400001429021358e-03 2.0415000617504120e-02 0.0000000000000000e+00  9.7179999575018883e-03 2.5528000667691231e-02 0.0000000000000000e+00  8.6529999971389771e-03 2.2971000522375107e-02 0.0000000000000000e+00  8.1940004602074623e-03 2.7785999700427055e-02 0.0000000000000000e+00  7.0310002192854881e-03 2.5257000699639320e-02 0.0000000000000000e+00  8.9170001447200775e-03 1.6953000798821449e-02 0.0000000000000000e+00  8.5469996556639671e-03 1.9799999892711639e-02 0.0000000000000000e+00  9.4760004431009293e-03 2.2181000560522079e-02 0.0000000000000000e+00  9.5920003950595856e-03 2.5268999859690666e-02 0.0000000000000000e+00  9.5250001177191734e-03 2.8572000563144684e-02 0.0000000000000000e+00  1.0192999616265297e-02 2.6373000815510750e-02 0.0000000000000000e+00  9.4299996271729469e-03 1.9709000363945961e-02 0.0000000000000000e+00  -7.9178996384143829e-02 -3.6210998892784119e-02 0.0000000000000000e+00  -8.0632999539375305e-02 -4.3972998857498169e-02 0.0000000000000000e+00  -8.6230002343654633e-02 -3.9868999272584915e-02 0.0000000000000000e+00  -7.3018997907638550e-02 -1.8422000110149384e-02 0.0000000000000000e+00  -7.3881998658180237e-02 -2.0864000543951988e-02 0.0000000000000000e+00  -7.6456002891063690e-02 -2.6791999116539955e-02 0.0000000000000000e+00  -7.6461002230644226e-02 -2.7552999556064606e-02 0.0000000000000000e+00  -1.4483000151813030e-02 -3.2313000410795212e-02 0.0000000000000000e+00  1.1590999551117420e-02 -1.1966999620199203e-02 0.0000000000000000e+00  -2.0439999643713236e-03 -1.3806999661028385e-02 0.0000000000000000e+00  -3.5248998552560806e-02 -3.5826001316308975e-02 0.0000000000000000e+00  -7.9176999628543854e-02 -9.2510998249053955e-02 0.0000000000000000e+00  -1.0453700274229050e-01 -1.3182500004768372e-01 0.0000000000000000e+00  -1.2283699959516525e-01 -1.4018799364566803e-01 0.0000000000000000e+00  -1.3891400396823883e-01 -1.4626400172710419e-01 0.0000000000000000e+00