<?xml version="1.0"?>
<VTKFile type="UnstructuredGrid"  version="0.1"  >
<UnstructuredGrid>
<Piece  NumberOfPoints="6340" NumberOfCells="12376">
<Points>
<DataArray  type="Float64"  NumberOfComponents="3"  format="ascii">-0.01928899995982647 0.02077200077474117 0  -0.0200980007648468 0.02143500000238419 0  -0.02029000036418438 0.02043999917805195 0  -0.02098199911415577 0.02123799920082092 0  -0.01949799992144108 0.01985500007867813 0  -0.01915800012648106 0.02164500020444393 0  -0.01976699940860271 0.02239399962127209 0  -0.01928500086069107 0.02319999970495701 0  -0.02036100067198277 0.02318800054490566 0  -0.01868299953639507 0.02236899919807911 0  -0.007639000192284584 0.01872899942100048 0  -0.008322999812662601 0.0195119995623827 0  -0.00864499993622303 0.01857399940490723 0  -0.009336000308394432 0.01939399912953377 0  -0.02644000016152859 0.08050099760293961 0  -0.02738500013947487 0.08111900091171265 0  -0.02757499925792217 0.08031699806451797 0  -0.02736900001764297 0.07354900240898132 0  -0.0279569998383522 0.07444000244140625 0  -0.02821799926459789 0.07350999861955643 0  -0.02893999963998795 0.0741100013256073 0  -0.01236199960112572 0.09089799970388412 0  -0.01337200030684471 0.09089300036430359 0  -0.01287300046533346 0.09002400189638138 0  -0.02045300044119358 0.08574099838733673 0  -0.01944099925458431 0.08573299646377563 0  -0.01996099948883057 0.08659099787473679 0  -0.01993300020694733 0.0848810002207756 0  -0.02245499938726425 0.02486299909651279 0  -0.0214259997010231 0.02485599927604198 0  -0.02194499969482422 0.02573199942708015 0  -0.02241400070488453 0.0266100000590086 0  -0.02299300022423267 0.02575100027024746 0  -0.02090799994766712 0.02573000080883503 0  -0.02039200067520142 0.02486700005829334 0  -0.01934700086712837 0.02487899921834469 0  -0.01987499929964542 0.02573399990797043 0  -0.02192899957299232 0.02396499924361706 0  -0.02305799908936024 0.02403699979186058 0  -0.02226000092923641 0.02270999923348427 0  -0.02163900062441826 0.02199500054121017 0  -0.02139399945735931 0.02308299951255322 0  -0.02074399963021278 0.02226600050926208 0  -0.01575100049376488 0.02211900055408478 0  -0.01626400090754032 0.02123299986124039 0  -0.01521399989724159 0.02126899920403957 0  -0.01672899909317493 0.02218200080096722 0  -0.01775100082159042 0.02218399941921234 0  -0.017255999147892 0.02306400053203106 0  0.04252399876713753 0.08425299823284149 0  0.04225699976086617 0.08335600048303604 0  0.04356199875473976 0.0836929976940155 0  0.0447239987552166 0.09595099836587906 0  0.04551399871706963 0.09636600315570831 0  0.04450599849224091 0.09685999900102615 0  0.02827700041234493 0.1048149988055229 0  0.02835799939930439 0.1038589999079704 0  0.02926900051534176 0.1043279990553856 0  0.02736500091850758 0.1052619963884354 0  0.02741999924182892 0.1041020005941391 0  -0.004273000173270702 0.09966100007295609 0  -0.003264999948441982 0.09965799748897552 0  -0.003771000076085329 0.1005339995026588 0  -0.002765000099316239 0.1005309969186783 0  -0.0168089997023344 0.1012170016765594 0  -0.01733300089836121 0.1004720032215118 0  -0.01614099927246571 0.1005640029907227 0  -0.01783199980854988 0.1014439985156059 0  -0.01166000030934811 0.1075059995055199 0  -0.01176900044083595 0.1084539964795113 0  -0.01253500021994114 0.1076920032501221 0  -0.008794000372290611 0.09878700226545334 0  -0.007786000147461891 0.09878700226545334 0  -0.008294999599456787 0.09966400265693665 0  -0.009805000387132168 0.09878499805927277 0  -0.009296000003814697 0.09791000187397003 0  -0.01030700001865625 0.09790799766778946 0  -0.01234900020062923 0.1013559997081757 0  -0.01281800027936697 0.1021939963102341 0  -0.01340200006961823 0.1013389974832535 0  -0.01133299991488457 0.09964899718761444 0  -0.01236299984157085 0.09965000301599503 0  -0.01183999981731176 0.09878300130367279 0  0.01328600011765957 0.09516199678182602 0  0.01428900007158518 0.09516099840402603 0  0.01378499995917082 0.09602600336074829 0  0.007822999730706215 0.07872600108385086 0  0.008324000053107738 0.07785899937152863 0  0.008825000375509262 0.07872500270605087 0  -0.007340000011026859 0.01789000071585178 0  -0.006519000045955181 0.01815200038254261 0  -0.008209999650716782 0.01771700009703636 0  -0.009116999804973602 0.01753699965775013 0  -0.01279000006616116 0.01724000088870525 0  -0.01305700000375509 0.0182889997959137 0  -0.01366499997675419 0.01738400012254715 0  -0.01222600042819977 0.01815400086343288 0  -0.01226000022143126 0.01915599964559078 0  -0.01140000019222498 0.01837800070643425 0  -0.01181699987500906 0.02204900048673153 0  -0.01229800004512072 0.02108900062739849 0  -0.01134900003671646 0.02118100039660931 0  -0.01087400037795305 0.02037299983203411 0  -0.01032499969005585 0.02122999913990498 0  -0.01182700041681528 0.02017699927091599 0  -0.01277799997478724 0.0220160000026226 0  -0.01422000024467707 0.02118499949574471 0  -0.01473200041800737 0.02211200073361397 0  -0.01374499965459108 0.02205000072717667 0  -0.008828000165522099 0.02035100013017654 0  -0.01077899988740683 0.03091800026595592 0  -0.01128299999982119 0.03004099987447262 0  -0.01027700025588274 0.03003899939358234 0  -0.005251999944448471 0.03003500029444695 0  -0.005752000026404858 0.03091399930417538 0  -0.006252999883145094 0.03003700077533722 0  -0.007860000245273113 0.02047700062394142 0  -0.005355999805033207 0.02009199932217598 0  -0.006341000087559223 0.01987499929964542 0  -0.005555999930948019 0.01925400085747242 0  -0.005632000043988228 0.018435999751091 0  -0.004650000017136335 0.01875000074505806 0  0.04643699899315834 0.09192100167274475 0  0.04733499884605408 0.09149099886417389 0  0.04701200127601624 0.09260500222444534 0  0.04595699906349182 0.09269600361585617 0  0.01680500060319901 0.05958700180053711 0  0.01781499944627285 0.05956999957561493 0  0.0173140000551939 0.06043799966573715 0  0.03072899952530861 0.04544299840927124 0  0.03123500011861324 0.04441700130701065 0  0.03166399896144867 0.04518400132656097 0  0.03272699937224388 0.04979399964213371 0  0.03365800157189369 0.04917699843645096 0  0.03399699926376343 0.04994599893689156 0  0.03243999928236008 0.05323899909853935 0  0.03146899864077568 0.05325600132346153 0  0.03201999887824059 0.05235299840569496 0  0.03158599883317947 0.05150499939918518 0  0.03261300176382065 0.05145499855279922 0  0.0310210008174181 0.05239300057291985 0  0.03047999925911427 0.05328499898314476 0  0.03054100088775158 0.05156600102782249 0  0.03001200035214424 0.05076099932193756 0  0.02949799969792366 0.05161499977111816 0  0.02896299958229065 0.0507970005273819 0  0.04399000108242035 0.09426899999380112 0  0.04295000061392784 0.09427300095558167 0  0.04346700012683868 0.09342300146818161 0  0.04244700074195862 0.09339399635791779 0  0.008728000335395336 0.0254490002989769 0  0.009522999636828899 0.02590000070631504 0  0.008725999854505062 0.02649899944663048 0  0.009592999704182148 0.02684600092470646 0  0.02845899946987629 0.05165300145745277 0  0.02437400072813034 0.05345200002193451 0  0.02387000061571598 0.05431700125336647 0  0.02335800044238567 0.05346899852156639 0  0.02488799951970577 0.05429799854755402 0  0.03096099942922592 0.054152000695467 0  0.02013999968767166 0.03627799823880196 0  0.01921400055289268 0.03612500056624413 0  0.01966300047934055 0.03525299951434135 0  0.01430500019341707 0.04137900099158287 0  0.01330799981951714 0.04137999936938286 0  0.0138100003823638 0.0405069999396801 0  0.01281199976801872 0.04050799831748009 0  0.01231100037693977 0.04137999936938286 0  0.01231500040739775 0.0396369993686676 0  0.01331400033086538 0.03963600099086761 0  0.01380399987101555 0.04225200042128563 0  -0.02875399962067604 0.07502000033855438 0  -0.02760899998247623 0.07528799772262573 0  -0.02858399972319603 0.07585299760103226 0  -0.02696700021624565 0.07446400076150894 0  -0.02651499956846237 0.07530699670314789 0  -0.02545499987900257 0.07533200085163116 0  -0.02589100040495396 0.07618000358343124 0  -0.02491799928247929 0.07448799908161163 0  -0.0244159996509552 0.07534299790859222 0  -0.02489100024104118 0.07619299739599228 0  -0.02907999977469444 0.07316400110721588 0  -0.01945899985730648 0.08743900060653687 0  -0.02047899924218655 0.08744599670171738 0  -0.01785000041127205 0.09699500352144241 0  -0.01886500045657158 0.09703300148248672 0  -0.01836699992418289 0.09614700078964233 0  -0.01937800087034702 0.09618899971246719 0  -0.01888000033795834 0.09529600292444229 0  -0.01643400080502033 0.09971699863672256 0  -0.01545600034296513 0.09970500320196152 0  -0.01504900027066469 0.100552000105381 0  -0.01388099975883961 0.09002000093460083 0  -0.01183299999684095 0.08310899883508682 0  -0.01082499977201223 0.0831030011177063 0  -0.01133800018578768 0.08396399766206741 0  -0.01084600016474724 0.08482500165700912 0  -0.01033200044184923 0.08396100252866745 0  -0.01584099978208542 0.0814180001616478 0  -0.0163320004940033 0.08056099712848663 0  -0.01532499957829714 0.0805559977889061 0  -0.01431700028479099 0.08055099844932556 0  -0.01480900030583143 0.079694002866745 0  -0.01892299950122833 0.08487299829721451 0  -0.01840499974787235 0.08401100337505341 0  -0.01941500045359135 0.08401799947023392 0  -0.02042599953711033 0.08402799814939499 0  -0.02540200017392635 0.077053003013134 0  -0.02582699991762638 0.07964999973773956 0  -0.02537900023162365 0.08049800246953964 0  -0.02348100021481514 0.02473999932408333 0  -0.02388999983668327 0.02542000077664852 0  -0.02419500052928925 0.02611199952661991 0  -0.02452399954199791 0.02685699984431267 0  -0.02342800050973892 0.0266720000654459 0  -0.01985299959778786 0.02402899973094463 0  -0.01879799924790859 0.02402899973094463 0  -0.0209100004285574 0.02399699948728085 0  -0.02264700084924698 0.02335399948060513 0  -0.0171900000423193 0.01840499974787235 0  -0.01681200042366982 0.01917099952697754 0  -0.01799000054597855 0.01874000020325184 0  -0.01636799983680248 0.01806000061333179 0  -0.0182339996099472 0.02316999994218349 0  -0.0162439998
[...]
<PointData  Vectors="velocity"> 
<DataArray  type="Float64"  Name="velocity"  NumberOfComponents="3" format="ascii">1.4789999695494771e-03 1.2850000057369471e-03 0.0000000000000000e+00  1.1249999515712261e-03 9.8400004208087921e-04 0.0000000000000000e+00  -6.0439999215304852e-03 3.0219999607652426e-03 0.0000000000000000e+00  -6.3100000843405724e-03 3.8179999683052301e-03 0.0000000000000000e+00  -6.0439999215304852e-03 2.5019999593496323e-03 0.0000000000000000e+00  2.6269999798387289e-03 2.2090000566095114e-03 0.0000000000000000e+00  2.4190000258386135e-03 2.0330001134425402e-03 0.0000000000000000e+00  3.7100000772625208e-03 2.9509998857975006e-03 0.0000000000000000e+00  2.1520000882446766e-03 1.8039999995380640e-03 0.0000000000000000e+00  4.1029998101294041e-03 3.2760000322014093e-03 0.0000000000000000e+00  4.2949998751282692e-03 3.1950001139193773e-03 0.0000000000000000e+00  1.5946999192237854e-02 8.3609996363520622e-03 0.0000000000000000e+00  5.5550001561641693e-03 3.7670000456273556e-03 0.0000000000000000e+00  1.4456000179052353e-02 8.1550003960728645e-03 0.0000000000000000e+00  -7.9039996489882469e-03 -7.6580001041293144e-03 0.0000000000000000e+00  -2.2219999227672815e-03 -2.2200000239536166e-04 0.0000000000000000e+00  -1.5170000260695815e-03 2.4799999664537609e-04 0.0000000000000000e+00  -1.0615999810397625e-02 -2.5402000173926353e-02 0.0000000000000000e+00  -9.1960001736879349e-03 -1.7628999426960945e-02 0.0000000000000000e+00  -8.2769999280571938e-03 -1.7671000212430954e-02 0.0000000000000000e+00  3.0219999607652426e-03 3.0219999607652426e-03 0.0000000000000000e+00  -1.1252799630165100e-01 -6.5246999263763428e-02 0.0000000000000000e+00  -9.6998997032642365e-02 -4.8640999943017960e-02 0.0000000000000000e+00  -1.1217000335454941e-01 -7.0445001125335693e-02 0.0000000000000000e+00  -3.5732999444007874e-02 -2.4658000096678734e-02 0.0000000000000000e+00  -4.5805998146533966e-02 -3.5624999552965164e-02 0.0000000000000000e+00  -3.7732999771833420e-02 -2.0882999524474144e-02 0.0000000000000000e+00  -4.2107000946998596e-02 -3.8265001028776169e-02 0.0000000000000000e+00  6.4400001429021358e-04 5.6000001495704055e-04 0.0000000000000000e+00  1.4759999467059970e-03 1.2319999514147639e-03 0.0000000000000000e+00  8.5299997590482235e-04 7.2399998316541314e-04 0.0000000000000000e+00  1.7400000069756061e-04 1.9700000120792538e-04 0.0000000000000000e+00  1.7499999376013875e-04 1.6399999731220305e-04 0.0000000000000000e+00  1.8769999733194709e-03 1.4900000533089042e-03 0.0000000000000000e+00  2.6010000146925449e-03 2.0580000709742308e-03 0.0000000000000000e+00  4.0770000778138638e-03 3.0360000673681498e-03 0.0000000000000000e+00  3.1689999159425497e-03 2.3469999432563782e-03 0.0000000000000000e+00  8.8299997150897980e-04 7.6800002716481686e-04 0.0000000000000000e+00  -7.1700001135468483e-03 6.7679998464882374e-03 0.0000000000000000e+00  -6.8000000901520252e-03 5.2889999933540821e-03 0.0000000000000000e+00  -6.5620001405477524e-03 4.5750001445412636e-03 0.0000000000000000e+00  9.6600002143532038e-04 8.4400002378970385e-04 0.0000000000000000e+00  1.0920000495389104e-03 9.5399998826906085e-04 0.0000000000000000e+00  9.8419999703764915e-03 6.8140001967549324e-03 0.0000000000000000e+00  7.5050001032650471e-03 5.5300001986324787e-03 0.0000000000000000e+00  9.4419997185468674e-03 6.5660001710057259e-03 0.0000000000000000e+00  7.7479998581111431e-03 5.6280000135302544e-03 0.0000000000000000e+00  5.6340000592172146e-03 4.3190000578761101e-03 0.0000000000000000e+00  7.3850001208484173e-03 5.3110001608729362e-03 0.0000000000000000e+00  1.2931999750435352e-02 2.7697000652551651e-02 0.0000000000000000e+00  1.3512000441551208e-02 2.9263999313116074e-02 0.0000000000000000e+00  8.2740001380443573e-03 -1.0679999832063913e-03 0.0000000000000000e+00  8.5420003160834312e-03 2.4234000593423843e-02 0.0000000000000000e+00  6.6820001229643822e-03 2.1660000085830688e-02 0.0000000000000000e+00  5.2999998442828655e-03 2.4507999420166016e-02 0.0000000000000000e+00  -8.5051998496055603e-02 -3.2862000167369843e-02 0.0000000000000000e+00  -8.3944000303745270e-02 -2.4961000308394432e-02 0.0000000000000000e+00  -7.8653000295162201e-02 -2.2831000387668610e-02 0.0000000000000000e+00  -9.0256996452808380e-02 -4.1981000453233719e-02 0.0000000000000000e+00  -8.9951999485492706e-02 -3.3098999410867691e-02 0.0000000000000000e+00  -4.5669998973608017e-02 -9.0315997600555420e-02 0.0000000000000000e+00  -5.9206001460552216e-02 -1.0545700043439865e-01 0.0000000000000000e+00  -3.8212001323699951e-02 -8.6299002170562744e-02 0.0000000000000000e+00  -5.1307000219821930e-02 -1.0110999643802643e-01 0.0000000000000000e+00  4.8409998416900635e-02 6.3003003597259521e-02 0.0000000000000000e+00  4.7180999070405960e-02 6.3524000346660614e-02 0.0000000000000000e+00  4.7214001417160034e-02 6.3303999602794647e-02 0.0000000000000000e+00  -2.4439999833703041e-02 -1.3845000416040421e-02 0.0000000000000000e+00  3.9914999157190323e-02 4.1995000094175339e-02 0.0000000000000000e+00  -2.3891000077128410e-02 -6.2279999256134033e-03 0.0000000000000000e+00  -2.4429000914096832e-02 -7.3049999773502350e-03 0.0000000000000000e+00  -8.7470002472400665e-03 -2.1324999630451202e-02 0.0000000000000000e+00  -2.0222999155521393e-02 -3.9788998663425446e-02 0.0000000000000000e+00  1.5559999737888575e-03 -2.1018000319600105e-02 0.0000000000000000e+00  1.0349999647587538e-03 -4.8600002191960812e-03 0.0000000000000000e+00  -1.8279999494552612e-02 -2.2487999871373177e-02 0.0000000000000000e+00  -7.8729996457695961e-03 -5.0849998369812965e-03 0.0000000000000000e+00  4.3446999043226242e-02 4.3152999132871628e-02 0.0000000000000000e+00  4.7777000814676285e-02 4.8392999917268753e-02 0.0000000000000000e+00  4.6160001307725906e-02 5.1486998796463013e-02 0.0000000000000000e+00  2.7031999081373215e-02 2.5699000805616379e-02 0.0000000000000000e+00  3.2435998320579529e-02 3.6678001284599304e-02 0.0000000000000000e+00  1.8763000145554543e-02 2.5293000042438507e-02 0.0000000000000000e+00  -2.1283100545406342e-01 -7.7843002974987030e-02 0.0000000000000000e+00  -2.0456400513648987e-01 -6.4278997480869293e-02 0.0000000000000000e+00  -2.0287999510765076e-01 -7.7625997364521027e-02 0.0000000000000000e+00  -6.1909999698400497e-02 -7.9692997038364410e-02 0.0000000000000000e+00  -4.5072998851537704e-02 -6.2408998608589172e-02 0.0000000000000000e+00  -5.7266999036073685e-02 -5.6226000189781189e-02 0.0000000000000000e+00  -1.1332999914884567e-02 -1.5109999803826213e-03 0.0000000000000000e+00  -1.1793999932706356e-02 -1.7419999931007624e-03 0.0000000000000000e+00  -1.0848999954760075e-02 -1.2690000003203750e-03 0.0000000000000000e+00  -1.0344999842345715e-02 -1.0169999441131949e-03 0.0000000000000000e+00  -6.8000000901520252e-03 7.5599999399855733e-04 0.0000000000000000e+00  3.6740000359714031e-03 2.4629998952150345e-03 0.0000000000000000e+00  -6.5520000644028187e-03 1.0029999539256096e-03 0.0000000000000000e+00  4.6419999562203884e-03 3.0960000585764647e-03 0.0000000000000000e+00  7.9859998077154160e-03 5.2450001239776611e-03 0.0000000000000000e+00  6.5040001645684242e-03 4.2770002037286758e-03 0.0000000000000000e+00  1.6940999776124954e-02 9.8029999062418938e-03 0.0000000000000000e+00  1.3236000202596188e-02 8.1780003383755684e-03 0.0000000000000000e+00  1.5382000245153904e-02 9.0779997408390045e-03 0.0000000000000000e+00  1.4417000114917755e-02 8.5779996588826180e-03 0.0000000000000000e+00  1.7734000459313393e-02 9.8639996722340584e-03 0.0000000000000000e+00  1.1765999719500542e-02 7.3770000599324703e-03 0.0000000000000000e+00  1.5080000273883343e-02 9.1300001367926598e-03 0.0000000000000000e+00  1.0479999706149101e-02 6.9699999876320362e-03 0.0000000000000000e+00  1.2029999867081642e-02 7.9250000417232513e-03 0.0000000000000000e+00  1.3690000399947166e-02 8.6340000852942467e-03 0.0000000000000000e+00  1.9895000383257866e-02 1.0294999927282333e-02 0.0000000000000000e+00  3.4194998443126678e-02 4.5489999465644360e-03 0.0000000000000000e+00  3.1404998153448105e-02 5.2000000141561031e-03 0.0000000000000000e+00  3.5918999463319778e-02 8.9450003579258919e-03 0.0000000000000000e+00  5.2012998610734940e-02 2.9730999842286110e-02 0.0000000000000000e+00  5.3456000983715057e-02 2.7922999113798141e-02 0.0000000000000000e+00  4.9968000501394272e-02 2.6696000248193741e-02 0.0000000000000000e+00  2.2804999724030495e-02 1.0947999544441700e-02 0.0000000000000000e+00  1.7380999401211739e-02 6.2079997733235359e-03 0.0000000000000000e+00  1.7100000753998756e-02 7.4459998868405819e-03 0.0000000000000000e+00  4.5610000379383564e-03 2.1669999696314335e-03 0.0000000000000000e+00  -1.2292000465095043e-02 -1.9910000264644623e-03 0.0000000000000000e+00  -1.2844000011682510e-02 -2.2670000325888395e-03 0.0000000000000000e+00  1.2822000309824944e-02 1.6735000535845757e-02 0.0000000000000000e+00  1.1194000020623207e-02 1.3739000074565411e-02 0.0000000000000000e+00  1.1874999850988388e-02 1.5863999724388123e-02 0.0000000000000000e+00  1.3229000382125378e-02 1.9148999825119972e-02 0.0000000000000000e+00  1.0303299874067307e-01 1.0152699798345566e-01 0.0000000000000000e+00  1.0069400072097778e-01 1.0987800359725952e-01 0.0000000000000000e+00  9.9990002810955048e-02 1.0811900347471237e-01 0.0000000000000000e+00  1.8822999671101570e-02 3.3050000667572021e-02 0.0000000000000000e+00  -1.6265999525785446e-02 -1.3198999688029289e-02 0.0000000000000000e+00  -1.5285000205039978e-02 -1.4179999940097332e-02 0.0000000000000000e+00  2.2718999534845352e-02 4.8650998622179031e-02 0.0000000000000000e+00  -1.1295000091195107e-02 -1.7905000597238541e-02 0.0000000000000000e+00  -1.0583999566733837e-02 -1.8378999084234238e-02 0.0000000000000000e+00  3.1399998813867569e-02 7.7731996774673462e-02 0.0000000000000000e+00  3.8043998181819916e-02 8.5583999752998352e-02 0.0000000000000000e+00  3.1893998384475708e-02 7.4743002653121948e-02 0.0000000000000000e+00  3.3573001623153687e-02 7.1286000311374664e-02 0.0000000000000000e+00  2.5330999866127968e-02 6.3506998121738434e-02 0.0000000000000000e+00  3.9161000400781631e-02 8.2662001252174377e-02 0.0000000000000000e+00  4.4946998357772827e-02 9.2984996736049652e-02 0.0000000000000000e+00  4.3505001813173294e-02 7.8231997787952423e-02 0.0000000000000000e+00  4.5999001711606979e-02 7.5324997305870056e-02 0.0000000000000000e+00  5.2227001637220383e-02 8.4986001253128052e-02 0.0000000000000000e+00  5.3860999643802643e-02 8.2294002175331116e-02 0.0000000000000000e+00  1.3407999649643898e-02 2.6728000491857529e-02 0.0000000000000000e+00  1.4173000119626522e-02 3.0544999986886978e-02 0.0000000000000000e+00  1.5227999538183212e-02 2.8443999588489532e-02 0.0000000000000000e+00  1.5817999839782715e-02 3.2627001404762268e-02 0.0000000000000000e+00  -1.8366999924182892e-02 -2.7880000416189432e-03 0.0000000000000000e+00  -1.8619000911712646e-02 -2.5349999777972698e-03 0.0000000000000000e+00  4.1339998133480549e-03 1.6710000345483422e-03 0.0000000000000000e+00  5.2889999933540821e-03 2.2879999596625566e-03 0.0000000000000000e+00  5.9732001274824142e-02 9.0921998023986816e-02 0.0000000000000000e+00  8.6718000471591949e-02 1.1128500103950500e-01 0.0000000000000000e+00  8.9293003082275391e-02 1.1518900096416473e-01 0.0000000000000000e+00  9.1678000986576080e-02 1.1047200113534927e-01 0.0000000000000000e+00  8.3673998713493347e-02 1.1595900356769562e-01 0.0000000000000000e+00  4.3432999402284622e-02 9.5712997019290924e-02 0.0000000000000000e+00  3.0375000089406967e-02 1.9432000815868378e-02 0.0000000000000000e+00  3.3888999372720718e-02 2.0925000309944153e-02 0.0000000000000000e+00  2.5980999693274498e-02 1.5938999131321907e-02 0.0000000000000000e+00  9.1577999293804169e-02 4.5497000217437744e-02 0.0000000000000000e+00  9.4200998544692993e-02 4.4027000665664673e-02 0.0000000000000000e+00  8.8852003216743469e-02 4.2759001255035400e-02 0.0000000000000000e+00  9.1426998376846313e-02 4.1841998696327209e-02 0.0000000000000000e+00  9.6427001059055328e-02 4.2587999254465103e-02 0.0000000000000000e+00  8.7089002132415771e-02 4.0045998990535736e-02 0.0000000000000000e+00  8.4583997726440430e-02 4.0419001132249832e-02 0.0000000000000000e+00  9.6680000424385071e-02 4.6431001275777817e-02 0.0000000000000000e+00  2.5110000278800726e-03 2.7660001069307327e-03 0.0000000000000000e+00  -1.0467000305652618e-02 -1.8021000549197197e-02 0.0000000000000000e+00  2.0429999567568302e-03 2.5319999549537897e-03 0.0000000000000000e+00  -1.2161999940872192e-02 -2.6114000007510185e-02 0.0000000000000000e+00  -1.4286999590694904e-02 -2.7896000072360039e-02 0.0000000000000000e+00  -1.8512999638915062e-02 -3.8919001817703247e-02 0.0000000000000000e+00  -1.6752999275922775e-02 -3.0750999227166176e-02 0.0000000000000000e+00  -2.0069999620318413e-02 -4.8599001020193100e-02 0.0000000000000000e+00  -2.3153999820351601e-02 -5.1362000405788422e-02 0.0000000000000000e+00  -2.1515000611543655e-02 -4.1714001446962357e-02 0.0000000000000000e+00  3.0219999607652426e-03 3.2860001083463430e-03 0.0000000000000000e+00  -3.7849999964237213e-02 -1.6712000593543053e-02 0.0000000000000000e+00  -2.7027999982237816e-02 -7.1040000766515732e-03 0.0000000000000000e+00  3.1525000929832458e-02 6.0270998626947403e-02 0.0000000000000000e+00  3.4536998718976974e-02 6.0132000595331192e-02 0.0000000000000000e+00  2.7808999642729759e-02 5.7087000459432602e-02 0.0000000000000000e+00  3.2255999743938446e-02 5.7741999626159668e-02 0.0000000000000000e+00  1.9124999642372131e-02 5.2602000534534454e-02 0.0000000000000000e+00  4.4888999313116074e-02 6.3050001859664917e-02 0.0000000000000000e+00  4.3356001377105713e-02 5.9923999011516571e-02 0.0000000000000000e+00  4.5892000198364258e-02 5.8883000165224075e-02 0.0000000000000000e+00  -9.7009003162384033e-02 -5.3422998636960983e-02 0.0000000000000000e+00  -1.2529000639915466e-01 -1.7645700275897980e-01 0.0000000000000000e+00  -1.3322000205516815e-01 -1.9030700623989105e-01 0.0000000000000000e+00  -1.3541500270366669e-01 -1.7632299661636353e-01 0.0000000000000000e+00  -1.4559100568294525e-01 -1.7552599310874939e-01 0.0000000000000000e+00  -1.4359599351882935e-01 -1.9040800631046295e-01 0.0000000000000000e+00  -8.6929000914096832e-02 -1.3253000378608704e-01 0.0000000000000000e+00  -8.0486997961997986e-02 -1.3228699564933777e-01 0.0000000000000000e+00  -8.8232003152370453e-02 -1.4723500609397888e-01 0.0000000000000000e+00  -9.5436997711658478e-02 -1.6155500710010529e-01 0.0000000000000000e+00  -8.8178999722003937e-02 -1.6056999564170837e-01 0.0000000000000000e+00  -5.2494000643491745e-02 -5.1111001521348953e-02 0.0000000000000000e+00  -6.0617998242378235e-02 -6.7648001015186310e-02 0.0000000000000000e+00  -4.8831000924110413e-02 -5.3266998380422592e-02 0.0000000000000000e+00  -3.8830000907182693e-02 -4.0908999741077423e-02 0.0000000000000000e+00  -1.6482999548316002e-02 -3.1208999454975128e-02 0.0000000000000000e+00  -1.0931000113487244e-02 -1.5444000251591206e-02 0.0000000000000000e+00  -1.2250999920070171e-02 -1.5437999740242958e-02 0.0000000000000000e+00  -7.3649999685585499e-03 7.5520002283155918e-03 0.0000000000000000e+00  -7.5550000183284283e-03 8.3109997212886810e-03 0.0000000000000000e+00  -7.7309999614953995e-03 9.3670003116130829e-03 0.0000000000000000e+00  -7.9210000112652779e-03 1.0503999888896942e-02 0.0000000000000000e+00  -1.2199999764561653e-04 -5.2999999752501026e-05 0.0000000000000000e+00  3.1969998963177204e-03 2.5339999701827765e-03 0.0000000000000000e+00  4.8859999515116215e-03 3.6609999369829893e-03 0.0000000000000000e+00  1.8489999929443002e-03 1.5450000064447522e-03 0.0000000000000000e+00  -6.9789998233318329e-03 6.0060000978410244e-03 0.0000000000000000e+00  -6.0439999215304852e-03 1.5109999803826213e-03 0.0000000000000000e+00  2.1379999816417694e-03 1.7199999419972301e-03 0.0000000000000000e+00  -6.0439999215304852e-03 1.5109999803826213e-03 0.0000000000000000e+00  -6.0439999215304852e-03 1.5109999803826213e-03 0.0000000000000000e+00  5.5180001072585583e-03 4.1620000265538692e-03 0.0000000000000000e+00  9.6140000969171524e-03 6.5669999457895756e-03 0.0000000000000000e+00  1.1393000371754169e-02 7.2679999284446239e-03 0.0000000000000000e+00  8.9919995516538620e-03 6.0459999367594719e-03 0.0000000000000000e+00  2.9340000823140144e-02 7.4400001903995872e-04 0.0000000000000000e+00  3.1899001449346542e-02 -7.0999999297782779e-04 0.0000000000000000e+00  2.6684999465942383e-02 -4.5070000924170017e-03 0.0000000000000000e+00  1.8907999619841576e-02 1.0379999876022339e-02 0.0000000000000000e+00  2.7151999995112419e-02 1.3143000192940235e-02 0.0000000000000000e+00  3.1339000910520554e-02 1.4833999797701836e-02 0.0000000000000000e+00  2.8978999704122543e-02 1.3500999659299850e-02 0.0000000000000000e+00  2.8798999264836311e-02 1.4111000113189220e-02 0.0000000000000000e+00  2.4896999821066856e-02 1.2393999844789505e-02 0.0000000000000000e+00  3.5091001540422440e-02 1.6690999269485474e-02 0.0000000000000000e+00  3.8304001092910767e-02 1.8655000254511833e-02 0.0000000000000000e+00  3.5719998180866241e-02 1.5964999794960022e-02 0.0000000000000000e+00  9.9360002204775810e-03 1.6681000590324402e-02 0.0000000000000000e+00  7.7860001474618912e-03 1.4037000015377998e-02 0.0000000000000000e+00  7.6959999278187752e-03 1.6425000503659248e-02 0.0000000000000000e+00  1.6326000913977623e-02 3.0424999073147774e-02 0.0000000000000000e+00  1.6028000041842461e-02 2.8148999437689781e-02 0.0000000000000000e+00  1.6499999910593033e-02 3.2885000109672546e-02 0.0000000000000000e+00  7.0650000125169754e-03 6.9430001080036163e-02 0.0000000000000000e+00  3.0660000629723072e-03 7.8555002808570862e-02 0.0000000000000000e+00  4.2710001580417156e-03 7.7019996941089630e-02 0.0000000000000000e+00  7.5550000183284283e-03 -2.2670000325888395e-03 0.0000000000000000e+00  1.2140000471845269e-03 2.9291000217199326e-02 0.0000000000000000e+00  -1.4380000066012144e-03 3.1367998570203781e-02 0.0000000000000000e+00  3.9550000801682472e-03 3.2101999968290329e-02 0.0000000000000000e+00  6.5199998207390308e-03 3.0000999569892883e-02 0.0000000000000000e+00  2.9329999815672636e-03 2.7837000787258148e-02 0.0000000000000000e+00  4.3410002253949642e-03 2.6308000087738037e-02 0.0000000000000000e+00  1.5760999172925949e-02 3.7057001143693924e-02 0.0000000000000000e+00  1.6472000628709793e-02 3.5188999027013779e-02 0.0000000000000000e+00  1.6293000429868698e-02 3.9939001202583313e-02 0.0000000000000000e+00  1.6888000071048737e-02 3.8008999079465866e-02 0.0000000000000000e+00  1.0851000435650349e-02 2.5444999337196350e-02 0.0000000000000000e+00  8.4849996492266655e-03 2.7355000376701355e-02 0.0000000000000000e+00  9.7279995679855347e-03 3.0620999634265900e-02 0.0000000000000000e+00  8.4960004314780235e-03 3.3498000353574753e-02 0.0000000000000000e+00  9.3259997665882111e-03 3.7112001329660416e-02 0.0000000000000000e+00  1.2082000263035297e-02 3.5780001431703568e-02 0.0000000000000000e+00  1.1562000028789043e-02 2.8734000399708748e-02 0.0000000000000000e+00  -9.7419001162052155e-02 -6.0995001345872879e-02 0.0000000000000000e+00  -9.8500996828079224e-02 -6.8882003426551819e-02 0.0000000000000000e+00  -1.0310199856758118e-01 -6.3690997660160065e-02 0.0000000000000000e+00  -9.6665002405643463e-02 -3.7966001778841019e-02 0.0000000000000000e+00  -9.3396998941898346e-02 -4.2941998690366745e-02 0.0000000000000000e+00  -9.8436996340751648e-02 -4.8379000276327133e-02 0.0000000000000000e+00  -9.4681002199649811e-02 -5.1550999283790588e-02 0.0000000000000000e+00  -2.0432999357581139e-02 -5.5883999913930893e-02 0.0000000000000000e+00  -2.2360000293701887e-03 -3.7119999527931213e-02 0.0000000000000000e+00  -9.0849995613098145e-03 -3.8474999368190765e-02 0.0000000000000000e+00  -3.1998001039028168e-02 -5.8037001639604568e-02 0.0000000000000000e+00  -7.1120999753475189e-02 -1.0993299633264542e-01 0.0000000000000000e+00  -1.0337000340223312e-01 -1.4358399808406830e-01 0.0000000000000000e+00  -1.1232399940490723e-01 -1.5113100409507751e-01 0.0000000000000000e+00  -1.2450099736452103e-01 -1.5665599703788757e-01 0.0000000000000000e+00  -3.2428998