<?xml version="1.0"?>
<VTKFile type="UnstructuredGrid"  version="0.1"  >
<UnstructuredGrid>
<Piece  NumberOfPoints="6340" NumberOfCells="12376">
<Points>
<DataArray  type="Float64"  NumberOfComponents="3"  format="ascii">-0.01946000009775162 0.02081000059843063 0  -0.02024099975824356 0.02148699946701527 0  -0.02043999917805195 0.0204900000244379 0  -0.02111100032925606 0.0212980005890131 0  -0.01967599987983704 0.01989099942147732 0  -0.01931999996304512 0.02168500050902367 0  -0.01990599930286407 0.02244500070810318 0  -0.01942400075495243 0.02325000055134296 0  -0.02048099972307682 0.02324900031089783 0  -0.01884699985384941 0.02240700088441372 0  -0.008306999690830708 0.01839799992740154 0  -0.008940000087022781 0.0192280001938343 0  -0.009266999550163746 0.01829100027680397 0  -0.00990699976682663 0.01916000060737133 0  -0.02633799985051155 0.07965199649333954 0  -0.02730300091207027 0.08023300021886826 0  -0.02745500020682812 0.07944399863481522 0  -0.0270140003412962 0.07284700125455856 0  -0.02761499956250191 0.0737060010433197 0  -0.02785399928689003 0.07278800010681152 0  -0.02858000062406063 0.07336000353097916 0  -0.01306699961423874 0.09007599949836731 0  -0.01405499968677759 0.09004300087690353 0  -0.01349900010973215 0.08921100199222565 0  -0.0206300001591444 0.08489599823951721 0  -0.01962999999523163 0.08491100370883942 0  -0.02019199915230274 0.08573000133037567 0  -0.02007099986076355 0.0840739980340004 0  -0.02252200059592724 0.02494500018656254 0  -0.02150899916887283 0.02493399940431118 0  -0.02201200090348721 0.02581300027668476 0  -0.02246600016951561 0.02669399976730347 0  -0.02304399944841862 0.0258370004594326 0  -0.02099099941551685 0.02580600045621395 0  -0.02049300074577332 0.02493499964475632 0  -0.01946699991822243 0.02493499964475632 0  -0.01997699961066246 0.02579900063574314 0  -0.02201200090348721 0.02404499985277653 0  -0.02312400005757809 0.02412199974060059 0  -0.02235000021755695 0.02278999984264374 0  -0.02174800075590611 0.02206500060856342 0  -0.02149599976837635 0.02315500006079674 0  -0.02086699940264225 0.02232800051569939 0  -0.01599800027906895 0.02211299911141396 0  -0.01650900021195412 0.02122900076210499 0  -0.01549299992620945 0.02124799974262714 0  -0.01694400049746037 0.02219199948012829 0  -0.01793999969959259 0.02220799960196018 0  -0.01744600012898445 0.02308600023388863 0  0.04389199987053871 0.08370599895715714 0  0.04354299977421761 0.0827919989824295 0  0.04490099847316742 0.08311299979686737 0  0.04671400040388107 0.09538500010967255 0  0.0475430004298687 0.09578900039196014 0  0.04648299887776375 0.09628099948167801 0  0.0294209998100996 0.1042089983820915 0  0.02950900048017502 0.1032690033316612 0  0.03046499937772751 0.1037240028381348 0  0.0284620001912117 0.104654997587204 0  0.02852299995720387 0.1035130023956299 0  -0.005288000218570232 0.09922800213098526 0  -0.004222000017762184 0.09926199913024902 0  -0.004776999820023775 0.1001140028238297 0  -0.003708000062033534 0.1001439988613129 0  -0.01815599948167801 0.1000659987330437 0  -0.01862699910998344 0.09930799901485443 0  -0.0174540001899004 0.09944900125265121 0  -0.01918300054967403 0.1002470031380653 0  -0.01321499980986118 0.1066899970173836 0  -0.01335899997502565 0.1076380014419556 0  -0.01412499975413084 0.1068219989538193 0  -0.009956999681890011 0.09809800237417221 0  -0.008921000175178051 0.0981609970331192 0  -0.009476000443100929 0.09901099652051926 0  -0.0109869996085763 0.09803199768066406 0  -0.01043100003153086 0.09718400239944458 0  -0.01146099995821714 0.09711900353431702 0  -0.01368500012904406 0.1004600003361702 0  -0.01419899985194206 0.1012739986181259 0  -0.01474899984896183 0.100380003452301 0  -0.01257899962365627 0.09880699962377548 0  -0.01361900009214878 0.09874500334262848 0  -0.01304799970239401 0.09790600091218948 0  0.01369800046086311 0.09480799734592438 0  0.0147510003298521 0.09480100125074387 0  0.01422000024467707 0.09565500169992447 0  0.007996000349521637 0.07867400348186493 0  0.00848700013011694 0.07780499756336212 0  0.009047999978065491 0.07866600155830383 0  -0.008039999753236771 0.01752999983727932 0  -0.007255999837070704 0.01775600016117096 0  -0.00887100026011467 0.01739900000393391 0  -0.009739000350236893 0.01726200059056282 0  -0.01322999969124794 0.01711999997496605 0  -0.01346699986606836 0.01818699948489666 0  -0.01406900025904179 0.01728999987244606 0  -0.01267500035464764 0.01802399940788746 0  -0.01268499996513128 0.01904099993407726 0  -0.01188699994236231 0.01821699924767017 0  -0.0122060002759099 0.0219500008970499 0  -0.01268600020557642 0.02099400013685226 0  -0.01177600026130676 0.02105600014328957 0  -0.01134399976581335 0.02021699957549572 0  -0.0108040003105998 0.02106400020420551 0  -0.01225200016051531 0.02005800046026707 0  -0.01313100010156631 0.02194399945437908 0  -0.01453300006687641 0.02114499919116497 0  -0.01501199975609779 0.02208800055086613 0  -0.0140599999576807 0.02200499922037125 0  -0.00940299965441227 0.02010600082576275 0  -0.01104499958455563 0.03088000044226646 0  -0.01154599990695715 0.03000799939036369 0  -0.01057799998670816 0.02997799962759018 0  -0.005793000105768442 0.02976500056684017 0  -0.006250000093132257 0.0306829996407032 0  -0.006744999904185534 0.02981800027191639 0  -0.00848000030964613 0.02018499933183193 0  -0.00610999995842576 0.01966799981892109 0  -0.007048999890685081 0.01949699968099594 0  -0.006318000145256519 0.01882700063288212 0  -0.006407999899238348 0.01799999922513962 0  -0.005470000207424164 0.01827000081539154 0  0.04847199842333794 0.09138999879360199 0  0.04936299845576286 0.09094099700450897 0  0.04910700023174286 0.09207200258970261 0  0.04801600053906441 0.09217499941587448 0  0.01623800024390221 0.0591370016336441 0  0.0172749999910593 0.05905799940228462 0  0.01680500060319901 0.05994199961423874 0  0.02980699948966503 0.04440600052475929 0  0.03027099929749966 0.04336699843406677 0  0.03075800091028214 0.04409699887037277 0  0.03208399936556816 0.04863100126385689 0  0.03300699964165688 0.04797700047492981 0  0.03339000046253204 0.04873599857091904 0  0.03194399923086166 0.05210400000214577 0  0.03096199966967106 0.05215299874544144 0  0.03148199990391731 0.05122600123286247 0  0.03099899925291538 0.05039000138640404 0  0.03204600140452385 0.05030300095677376 0  0.03046300075948238 0.05130299925804138 0  0.02995200082659721 0.05221899971365929 0  0.02993299998342991 0.05049100145697594 0  0.02935199998319149 0.04970899969339371 0  0.02886799909174442 0.05058199912309647 0  0.02827900089323521 0.04979399964213371 0  0.04594599828124046 0.09373600035905838 0  0.04485499858856201 0.09374599903821945 0  0.04539899900555611 0.09290599822998047 0  0.0443280003964901 0.09288399666547775 0  0.007519000209867954 0.02486100047826767 0  0.008303999900817871 0.02532500028610229 0  0.007538999896496534 0.02592400088906288 0  0.00839299988001585 0.0262839999049902 0  0.02780500054359436 0.05066899955272675 0  0.02370000071823597 0.05265799909830093 0  0.02322899922728539 0.0535379983484745 0  0.02265099994838238 0.05273199826478958 0  0.02427699975669384 0.05346500128507614 0  0.03047999925911427 0.05307300016283989 0  0.01884300075471401 0.03581399843096733 0  0.01793999969959259 0.03567000105977058 0  0.01835799962282181 0.03478600084781647 0  0.01328600011765957 0.0409960001707077 0  0.01231900043785572 0.04099899902939796 0  0.01278799958527088 0.04011600092053413 0  0.0118199996650219 0.0401189997792244 0  0.0113519998267293 0.04100099951028824 0  0.01131800003349781 0.03923999890685081 0  0.01228899974375963 0.03923700004816055 0  0.01281800027936697 0.04187899827957153 0  -0.02842400036752224 0.07425399869680405 0  -0.02729699946939945 0.07454299926757812 0  -0.02828199975192547 0.07507099956274033 0  -0.02663400024175644 0.07375399768352509 0  -0.02621299959719181 0.07458800077438354 0  -0.02516200020909309 0.07463899999856949 0  -0.02562100067734718 0.07545500248670578 0  -0.02460299991071224 0.07382799685001373 0  -0.02413200028240681 0.07467400282621384 0  -0.02463099919259548 0.07549300044775009 0  -0.02870200015604496 0.07242800295352936 0  -0.01974599994719028 0.08656200021505356 0  -0.02074999921023846 0.08654599636793137 0  -0.01889799907803535 0.09586700052022934 0  -0.019896000623703 0.09587399661540985 0  -0.01934099942445755 0.0950239971280098 0  -0.02033399976789951 0.09503600001335144 0  -0.01977800019085407 0.09418000280857086 0  -0.01768900081515312 0.09859800338745117 0  -0.016720000654459 0.0986270010471344 0  -0.01636100001633167 0.09949400275945663 0  -0.01448300015181303 0.08918099850416183 0  -0.01197400037199259 0.0825439989566803 0  -0.01097800023853779 0.08256100118160248 0  -0.01153699960559607 0.08338200300931931 0  -0.0111109996214509 0.08422400057315826 0  -0.01054900046437979 0.08340100198984146 0  -0.01586800068616867 0.08080500364303589 0  -0.01631800085306168 0.07996200025081635 0  -0.01531899999827147 0.0799809992313385 0  -0.01432000007480383 0.07999999821186066 0  -0.0147709995508194 0.07915399968624115 0  -0.01907099969685078 0.08409000188112259 0  -0.01851899921894073 0.08326499909162521 0  -0.01951999962329865 0.08324799686670303 0  -0.02052400074899197 0.08323200047016144 0  -0.02516599930822849 0.07631900161504745 0  -0.02569199912250042 0.07883399724960327 0  -0.0252860002219677 0.07967600226402283 0  -0.02353299967944622 0.02482699975371361 0  -0.02393000014126301 0.02551000006496906 0  -0.02422799915075302 0.02620399929583073 0  -0.02454899996519089 0.02695200033485889 0  -0.02346500009298325 0.0267609991133213 0  -0.01997300051152706 0.02408800087869167 0  -0.01893699914216995 0.02407599985599518 0  -0.0210110004991293 0.02406799979507923 0  -0.02272499911487103 0.02343600057065487 0  -0.01745099946856499 0.01839900016784668 0  -0.01707400009036064 0.01916399970650673 0  -0.01821999996900558 0.01875000074505806 0  -0.0166619997471571 0.01803800091147423 0  -0.01839799992740154 0.02320599928498268 0  -0.0164599996060133 0.023
[...]
<PointData  Vectors="velocity"> 
<DataArray  type="Float64"  Name="velocity"  NumberOfComponents="3" format="ascii">2.2410000674426556e-03 -8.7799999164417386e-04 0.0000000000000000e+00  1.7170000355690718e-03 -8.5700000636279583e-04 0.0000000000000000e+00  2.2670000325888395e-03 -3.0219999607652426e-03 0.0000000000000000e+00  3.3279999624937773e-03 -3.8179999683052301e-03 0.0000000000000000e+00  9.6600002143532038e-04 -3.0219999607652426e-03 0.0000000000000000e+00  3.1969998963177204e-03 -1.1259999591857195e-03 0.0000000000000000e+00  2.7689998969435692e-03 -1.1849999427795410e-03 0.0000000000000000e+00  3.7620000075548887e-03 -1.7399999778717756e-03 0.0000000000000000e+00  2.2770001087337732e-03 -1.2900000438094139e-03 0.0000000000000000e+00  4.4430000707507133e-03 -1.5899999998509884e-03 0.0000000000000000e+00  7.7740000560879707e-03 -6.2879999168217182e-03 0.0000000000000000e+00  1.0653000324964523e-02 -5.0860000774264336e-03 0.0000000000000000e+00  1.2140999548137188e-02 -4.2179999873042107e-03 0.0000000000000000e+00  1.2659000232815742e-02 -4.0400000289082527e-03 0.0000000000000000e+00  -1.6600999981164932e-02 -3.5762000828981400e-02 0.0000000000000000e+00  5.0659999251365662e-03 -2.8708999976515770e-02 0.0000000000000000e+00  5.5359997786581516e-03 -2.8708999976515770e-02 0.0000000000000000e+00  -1.7350999638438225e-02 -6.3644997775554657e-02 0.0000000000000000e+00  -1.6464000567793846e-02 -5.2443999797105789e-02 0.0000000000000000e+00  -1.4372999779880047e-02 -5.2381999790668488e-02 0.0000000000000000e+00  8.3109997212886810e-03 -3.0220000073313713e-02 0.0000000000000000e+00  -1.3839900493621826e-01 -9.0467996895313263e-02 0.0000000000000000e+00  -1.2114100158214569e-01 -7.4363999068737030e-02 0.0000000000000000e+00  -1.3479000329971313e-01 -9.8621003329753876e-02 0.0000000000000000e+00  -5.0085000693798065e-02 -5.8524999767541885e-02 0.0000000000000000e+00  -6.0945000499486923e-02 -7.1047000586986542e-02 0.0000000000000000e+00  -5.2501000463962555e-02 -5.4209999740123749e-02 0.0000000000000000e+00  -5.7668998837471008e-02 -7.4899002909660339e-02 0.0000000000000000e+00  5.0600001122802496e-04 -1.2229999992996454e-03 0.0000000000000000e+00  1.0870000114664435e-03 -1.7490000464022160e-03 0.0000000000000000e+00  4.2999998549930751e-04 -2.0099999383091927e-03 0.0000000000000000e+00  -2.6599998818710446e-04 -2.3439999204128981e-03 0.0000000000000000e+00  1.0800000018207356e-04 -1.3680000556632876e-03 0.0000000000000000e+00  1.1089999461546540e-03 -2.6960000395774841e-03 0.0000000000000000e+00  2.0920000970363617e-03 -2.2780001163482666e-03 0.0000000000000000e+00  3.4380001015961170e-03 -2.8599998913705349e-03 0.0000000000000000e+00  2.2400000598281622e-03 -3.3400000538676977e-03 0.0000000000000000e+00  8.8399997912347317e-04 -1.0529999854043126e-03 0.0000000000000000e+00  6.7679998464882374e-03 -7.1379998698830605e-03 0.0000000000000000e+00  5.2889999933540821e-03 -5.2889999933540821e-03 0.0000000000000000e+00  4.3370001949369907e-03 -4.5750001445412636e-03 0.0000000000000000e+00  1.1879999656230211e-03 -9.2600000789389014e-04 0.0000000000000000e+00  1.4959999825805426e-03 -8.8399997912347317e-04 0.0000000000000000e+00  9.8949996754527092e-03 -2.4409999605268240e-03 0.0000000000000000e+00  8.3210002630949020e-03 -1.9779999274760485e-03 0.0000000000000000e+00  1.0339000262320042e-02 -2.3020000662654638e-03 0.0000000000000000e+00  7.9800002276897430e-03 -2.2750000935047865e-03 0.0000000000000000e+00  6.0049998573958874e-03 -1.9049999536946416e-03 0.0000000000000000e+00  7.2070001624524593e-03 -2.5810000952333212e-03 0.0000000000000000e+00  1.2798000127077103e-02 2.6938000693917274e-02 0.0000000000000000e+00  1.3670999556779861e-02 2.8643000870943069e-02 0.0000000000000000e+00  9.3059996142983437e-03 -1.8611999228596687e-02 0.0000000000000000e+00  1.5255999751389027e-02 2.2847000509500504e-02 0.0000000000000000e+00  1.4131999574601650e-02 2.2089000791311264e-02 0.0000000000000000e+00  1.4615999534726143e-02 2.3903999477624893e-02 0.0000000000000000e+00  -4.3363001197576523e-02 -1.2814000248908997e-02 0.0000000000000000e+00  -4.2220000177621841e-02 -6.5999999642372131e-03 0.0000000000000000e+00  -3.7112001329660416e-02 -3.8370001129806042e-03 0.0000000000000000e+00  -4.9281999468803406e-02 -2.1331999450922012e-02 0.0000000000000000e+00  -4.8179000616073608e-02 -1.4384999871253967e-02 0.0000000000000000e+00  -6.0998998582363129e-02 -6.9548003375530243e-02 0.0000000000000000e+00  -7.6066002249717712e-02 -8.7872996926307678e-02 0.0000000000000000e+00  -3.8148000836372375e-02 -6.5302997827529907e-02 0.0000000000000000e+00  -5.2418000996112823e-02 -8.2313001155853271e-02 0.0000000000000000e+00  5.1282998174428940e-02 6.9080002605915070e-02 0.0000000000000000e+00  4.8659998923540115e-02 6.7808002233505249e-02 0.0000000000000000e+00  4.8080999404191971e-02 6.9659002125263214e-02 0.0000000000000000e+00  -4.0420000441372395e-03 -2.5686999782919884e-02 0.0000000000000000e+00  4.5662000775337219e-02 4.8859998583793640e-02 0.0000000000000000e+00  -1.3934999704360962e-02 -2.6443000882863998e-02 0.0000000000000000e+00  -1.2589000165462494e-02 -2.6443000882863998e-02 0.0000000000000000e+00  -2.8471000492572784e-02 -1.1159999994561076e-03 0.0000000000000000e+00  -4.0679998695850372e-02 -1.7917999997735023e-02 0.0000000000000000e+00  -9.1429995372891426e-03 2.9050000011920929e-03 0.0000000000000000e+00  -1.6634000465273857e-02 1.5861999243497849e-02 0.0000000000000000e+00  -4.5334998518228531e-02 -5.7479999959468842e-03 0.0000000000000000e+00  -3.2249998301267624e-02 1.0242000222206116e-02 0.0000000000000000e+00  4.8282001167535782e-02 6.4372003078460693e-02 0.0000000000000000e+00  5.5364001542329788e-02 6.7580997943878174e-02 0.0000000000000000e+00  4.9706000834703445e-02 6.7869000136852264e-02 0.0000000000000000e+00  1.8914999440312386e-02 4.4312000274658203e-02 0.0000000000000000e+00  2.6861000806093216e-02 5.5149000138044357e-02 0.0000000000000000e+00  3.2560001127421856e-03 4.1280999779701233e-02 0.0000000000000000e+00  -2.7636700868606567e-01 -5.8800000697374344e-02 0.0000000000000000e+00  -2.6481801271438599e-01 -4.4064998626708984e-02 0.0000000000000000e+00  -2.6366001367568970e-01 -5.8543998748064041e-02 0.0000000000000000e+00  -7.0523999631404877e-02 -6.3297003507614136e-02 0.0000000000000000e+00  -5.6428998708724976e-02 -4.7249000519514084e-02 0.0000000000000000e+00  -6.4710997045040131e-02 -4.1607998311519623e-02 0.0000000000000000e+00  -7.5550000183284283e-03 -1.4355000108480453e-02 0.0000000000000000e+00  -7.5550000183284283e-03 -1.5506999567151070e-02 0.0000000000000000e+00  -7.3139998130500317e-03 -1.3388000428676605e-02 0.0000000000000000e+00  -7.0609999820590019e-03 -1.2380000203847885e-02 0.0000000000000000e+00  -6.0439999215304852e-03 -7.5550000183284283e-03 0.0000000000000000e+00  1.0325999930500984e-02 -2.2960000205785036e-03 0.0000000000000000e+00  -5.3019998595118523e-03 -6.5649999305605888e-03 0.0000000000000000e+00  1.1818000115454197e-02 -2.2189998999238014e-03 0.0000000000000000e+00  1.1820999905467033e-02 -3.2069999724626541e-03 0.0000000000000000e+00  1.2783999554812908e-02 -2.6829999405890703e-03 0.0000000000000000e+00  1.6186999157071114e-02 -2.2420000750571489e-03 0.0000000000000000e+00  1.3953999616205692e-02 -2.8599998913705349e-03 0.0000000000000000e+00  1.4945000410079956e-02 -2.7799999807029963e-03 0.0000000000000000e+00  1.3999000191688538e-02 -3.2069999724626541e-03 0.0000000000000000e+00  1.5701999887824059e-02 -2.7089999057352543e-03 0.0000000000000000e+00  1.3096000067889690e-02 -3.2780000474303961e-03 0.0000000000000000e+00  1.4890000224113464e-02 -2.3739999160170555e-03 0.0000000000000000e+00  1.1773999780416489e-02 -2.6179999113082886e-03 0.0000000000000000e+00  1.1877000331878662e-02 -2.4610001128166914e-03 0.0000000000000000e+00  1.3581000268459320e-02 -2.3880000226199627e-03 0.0000000000000000e+00  1.3913000002503395e-02 -3.6359999794512987e-03 0.0000000000000000e+00  3.8695000112056732e-02 -1.5490000136196613e-02 0.0000000000000000e+00  3.4081999212503433e-02 -1.3716000132262707e-02 0.0000000000000000e+00  3.8401998579502106e-02 -1.0061999782919884e-02 0.0000000000000000e+00  5.4496001452207565e-02 7.8800003975629807e-03 0.0000000000000000e+00  5.7665001600980759e-02 5.1850001327693462e-03 0.0000000000000000e+00  5.2269000560045242e-02 4.9620000645518303e-03 0.0000000000000000e+00  1.3132999651134014e-02 -3.9599998854100704e-03 0.0000000000000000e+00  -5.4779998026788235e-03 -9.9360002204775810e-03 0.0000000000000000e+00  5.4099998669698834e-04 -8.4429997950792313e-03 0.0000000000000000e+00  -1.0800000280141830e-02 -1.2191999703645706e-02 0.0000000000000000e+00  -7.5550000183284283e-03 -1.6752999275922775e-02 0.0000000000000000e+00  -7.5550000183284283e-03 -1.8131999298930168e-02 0.0000000000000000e+00  1.1795000173151493e-02 1.7317000776529312e-02 0.0000000000000000e+00  1.1079000309109688e-02 1.5675999224185944e-02 0.0000000000000000e+00  1.1819999665021896e-02 1.7131999135017395e-02 0.0000000000000000e+00  1.2539999559521675e-02 1.8775999546051025e-02 0.0000000000000000e+00  1.0564900189638138e-01 1.1249499768018723e-01 0.0000000000000000e+00  1.0415499657392502e-01 1.1892099678516388e-01 0.0000000000000000e+00  1.0279899835586548e-01 1.1769799888134003e-01 0.0000000000000000e+00  2.7272000908851624e-02 3.5672001540660858e-02 0.0000000000000000e+00  -1.2566000223159790e-02 -1.8131999298930168e-02 0.0000000000000000e+00  -1.2320999987423420e-02 -1.8131999298930168e-02 0.0000000000000000e+00  2.9694000259041786e-02 4.9203000962734222e-02 0.0000000000000000e+00  -1.1332999914884567e-02 -1.8888000398874283e-02 0.0000000000000000e+00  -1.1332999914884567e-02 -1.8888000398874283e-02 0.0000000000000000e+00  3.9096999913454056e-02 7.9487003386020660e-02 0.0000000000000000e+00  4.6496000140905380e-02 8.8313996791839600e-02 0.0000000000000000e+00  4.0063001215457916e-02 7.6613999903202057e-02 0.0000000000000000e+00  4.2994998395442963e-02 7.3057003319263458e-02 0.0000000000000000e+00  3.3167999237775803e-02 6.4377002418041229e-02 0.0000000000000000e+00  4.8392999917268753e-02 8.5602998733520508e-02 0.0000000000000000e+00  5.3991001099348068e-02 9.6450001001358032e-02 0.0000000000000000e+00  5.3031001240015030e-02 8.1779003143310547e-02 0.0000000000000000e+00  5.5502001196146011e-02 7.9925000667572021e-02 0.0000000000000000e+00  6.1785001307725906e-02 8.9997999370098114e-02 0.0000000000000000e+00  6.3937000930309296e-02 8.8343001902103424e-02 0.0000000000000000e+00  1.4649000018835068e-02 2.3479999974370003e-02 0.0000000000000000e+00  1.5231000259518623e-02 2.5702999904751778e-02 0.0000000000000000e+00  1.4419999904930592e-02 2.4179000407457352e-02 0.0000000000000000e+00  1.4735000208020210e-02 2.6798000559210777e-02 0.0000000000000000e+00  -1.4068000018596649e-02 -2.2951999679207802e-02 0.0000000000000000e+00  -1.4572000131011009e-02 -2.2446999326348305e-02 0.0000000000000000e+00  2.2390000522136688e-03 8.6000000010244548e-05 0.0000000000000000e+00  2.9700000304728746e-03 3.3999999868683517e-04 0.0000000000000000e+00  6.9438003003597260e-02 9.6937999129295349e-02 0.0000000000000000e+00  9.3105003237724304e-02 1.1746499687433243e-01 0.0000000000000000e+00  9.4846002757549286e-02 1.2027800083160400e-01 0.0000000000000000e+00  9.6956998109817505e-02 1.1671099811792374e-01 0.0000000000000000e+00  9.0288996696472168e-02 1.2098400294780731e-01 0.0000000000000000e+00  5.1800001412630081e-02 9.8935998976230621e-02 0.0000000000000000e+00  4.4204000383615494e-02 2.2712999954819679e-02 0.0000000000000000e+00  4.7945000231266022e-02 2.5101000443100929e-02 0.0000000000000000e+00  3.6258000880479813e-02 1.8140999600291252e-02 0.0000000000000000e+00  1.1980299651622772e-01 5.6311998516321182e-02 0.0000000000000000e+00  1.2363199889659882e-01 5.5525001138448715e-02 0.0000000000000000e+00  1.1704300343990326e-01 5.2857998758554459e-02 0.0000000000000000e+00  1.2095200270414352e-01 5.2374999970197678e-02 0.0000000000000000e+00  1.2718500196933746e-01 5.4781001061201096e-02 0.0000000000000000e+00  1.1745099723339081e-01 4.9215000122785568e-02 0.0000000000000000e+00  1.1357299983501434e-01 4.9357000738382339e-02 0.0000000000000000e+00  1.2590399384498596e-01 5.8619000017642975e-02 0.0000000000000000e+00  8.0549996346235275e-03 -2.9965000227093697e-02 0.0000000000000000e+00  -1.8572999164462090e-02 -5.3013999015092850e-02 0.0000000000000000e+00  7.8210001811385155e-03 -2.9730999842286110e-02 0.0000000000000000e+00  -2.0052999258041382e-02 -6.4960002899169922e-02 0.0000000000000000e+00  -2.3407999426126480e-02 -6.7386001348495483e-02 0.0000000000000000e+00  -2.8838999569416046e-02 -8.2592003047466278e-02 0.0000000000000000e+00  -2.7537999674677849e-02 -7.1310997009277344e-02 0.0000000000000000e+00  -2.9784999787807465e-02 -9.5595002174377441e-02 0.0000000000000000e+00  -3.4648001194000244e-02 -9.8765000700950623e-02 0.0000000000000000e+00  -3.3475998789072037e-02 -8.5978999733924866e-02 0.0000000000000000e+00  8.3109997212886810e-03 -3.0220000073313713e-02 0.0000000000000000e+00  -5.5073000490665436e-02 -4.9823001027107239e-02 0.0000000000000000e+00  -4.3639000505208969e-02 -3.8860000669956207e-02 0.0000000000000000e+00  2.2352000698447227e-02 5.3160000592470169e-02 0.0000000000000000e+00  2.8609000146389008e-02 5.3259000182151794e-02 0.0000000000000000e+00  1.1021999642252922e-02 4.5919999480247498e-02 0.0000000000000000e+00  1.8628999590873718e-02 4.6147000044584274e-02 0.0000000000000000e+00  6.6920001991093159e-03 3.9629999548196793e-02 0.0000000000000000e+00  4.4635999947786331e-02 6.8205997347831726e-02 0.0000000000000000e+00  4.1857998818159103e-02 6.7851997911930084e-02 0.0000000000000000e+00  4.6939000487327576e-02 7.0396997034549713e-02 0.0000000000000000e+00  -1.1813300102949142e-01 -8.2502000033855438e-02 0.0000000000000000e+00  -1.5406000614166260e-01 -2.1389199793338776e-01 0.0000000000000000e+00  -1.6357299685478210e-01 -2.2533699870109558e-01 0.0000000000000000e+00  -1.6056799888610840e-01 -2.1157400310039520e-01 0.0000000000000000e+00  -1.6943900287151337e-01 -2.0856900513172150e-01 0.0000000000000000e+00  -1.6914199292659760e-01 -2.2271700203418732e-01 0.0000000000000000e+00  -1.1385899782180786e-01 -1.7839500308036804e-01 0.0000000000000000e+00  -1.0756900161504745e-01 -1.7999100685119629e-01 0.0000000000000000e+00  -1.1670000106096268e-01 -1.9405600428581238e-01 0.0000000000000000e+00  -1.2519800662994385e-01 -2.0707400143146515e-01 0.0000000000000000e+00  -1.1747600138187408e-01 -2.0820200443267822e-01 0.0000000000000000e+00  -7.0056997239589691e-02 -8.9295998215675354e-02 0.0000000000000000e+00  -8.1367999315261841e-02 -1.0851400345563889e-01 0.0000000000000000e+00  -6.9545000791549683e-02 -9.3129999935626984e-02 0.0000000000000000e+00  -5.8577001094818115e-02 -7.8988000750541687e-02 0.0000000000000000e+00  -2.7992000803351402e-02 -7.1728996932506561e-02 0.0000000000000000e+00  -2.4607999250292778e-02 -4.9045998603105545e-02 0.0000000000000000e+00  -2.3113999515771866e-02 -4.7453999519348145e-02 0.0000000000000000e+00  7.5520002283155918e-03 -8.1179998815059662e-03 0.0000000000000000e+00  8.3109997212886810e-03 -9.0659996494650841e-03 0.0000000000000000e+00  8.6629996076226234e-03 -9.7700003534555435e-03 0.0000000000000000e+00  9.0420003980398178e-03 -1.0529000312089920e-02 0.0000000000000000e+00  -3.7500000325962901e-04 -1.6520000062882900e-03 0.0000000000000000e+00  2.9800001066178083e-03 -1.9549999851733446e-03 0.0000000000000000e+00  4.5179999433457851e-03 -2.5049999821931124e-03 0.0000000000000000e+00  1.7300000181421638e-03 -1.4619999565184116e-03 0.0000000000000000e+00  6.0060000978410244e-03 -6.1860000714659691e-03 0.0000000000000000e+00  -2.2279999684542418e-03 -3.5000001080334187e-03 0.0000000000000000e+00  4.3029999360442162e-03 -1.2159999459981918e-03 0.0000000000000000e+00  -1.5109999803826213e-03 -3.0219999607652426e-03 0.0000000000000000e+00  -2.9639999847859144e-03 -3.9909998886287212e-03 0.0000000000000000e+00  5.4640001617372036e-03 -2.2330000065267086e-03 0.0000000000000000e+00  9.1380001977086067e-03 -2.8129999991506338e-03 0.0000000000000000e+00  1.0183000005781651e-02 -3.3599999733269215e-03 0.0000000000000000e+00  8.1359995529055595e-03 -3.2500000670552254e-03 0.0000000000000000e+00  3.3886998891830444e-02 -1.9230000674724579e-02 0.0000000000000000e+00  3.8715999573469162e-02 -2.1849999204277992e-02 0.0000000000000000e+00  3.3608999103307724e-02 -2.5562999770045280e-02 0.0000000000000000e+00  1.7292000353336334e-02 -2.1029999479651451e-03 0.0000000000000000e+00  2.3592999204993248e-02 -6.7199999466538429e-04 0.0000000000000000e+00  2.7115000411868095e-02 1.0499999916646630e-04 0.0000000000000000e+00  2.4883000180125237e-02 -1.0519999777898192e-03 0.0000000000000000e+00  2.5072000920772552e-02 1.0299999848939478e-04 0.0000000000000000e+00  2.1433999761939049e-02 -1.0209999745711684e-03 0.0000000000000000e+00  3.0749000608921051e-02 1.0199999669566751e-03 0.0000000000000000e+00  3.4561000764369965e-02 2.0709999371320009e-03 0.0000000000000000e+00  3.2108999788761139e-02 -2.1800000104121864e-04 0.0000000000000000e+00  1.2968000024557114e-02 1.8293999135494232e-02 0.0000000000000000e+00  1.2110999785363674e-02 1.7572000622749329e-02 0.0000000000000000e+00  1.2834000401198864e-02 1.8955999985337257e-02 0.0000000000000000e+00  1.2384999543428421e-02 2.5180000811815262e-02 0.0000000000000000e+00  1.3104000128805637e-02 2.3491000756621361e-02 0.0000000000000000e+00  1.3008000329136848e-02 2.6839999482035637e-02 0.0000000000000000e+00  7.0000001869630069e-05 6.2700003385543823e-02 0.0000000000000000e+00  -4.4869999401271343e-03 7.1896001696586609e-02 0.0000000000000000e+00  -9.4200001331046224e-04 6.9909997284412384e-02 0.0000000000000000e+00  9.0659996494650841e-03 -1.8131999298930168e-02 0.0000000000000000e+00  1.4639000408351421e-02 2.7528999373316765e-02 0.0000000000000000e+00  1.4229999855160713e-02 2.9258999973535538e-02 0.0000000000000000e+00  1.6209000721573830e-02 2.8460999950766563e-02 0.0000000000000000e+00  1.6188999637961388e-02 2.6588000357151031e-02 0.0000000000000000e+00  1.4727000147104263e-02 2.6301000267267227e-02 0.0000000000000000e+00  1.4793000183999538e-02 2.5104999542236328e-02 0.0000000000000000e+00  1.4361999928951263e-02 3.0234999954700470e-02 0.0000000000000000e+00  1.3794000260531902e-02 2.8471000492572784e-02 0.0000000000000000e+00  1.2880000285804272e-02 3.2657999545335770e-02 0.0000000000000000e+00  1.2434000149369240e-02 3.0828999355435371e-02 0.0000000000000000e+00  1.5382000245153904e-02 2.2910000756382942e-02 0.0000000000000000e+00  1.6034999862313271e-02 2.4519000202417374e-02 0.0000000000000000e+00  1.6265999525785446e-02 2.6250999420881271e-02 0.0000000000000000e+00  1.6351999714970589e-02 2.8487000614404678e-02 0.0000000000000000e+00  1.5951000154018402e-02 3.1261000782251358e-02 0.0000000000000000e+00  1.5806000679731369e-02 2.9866000637412071e-02 0.0000000000000000e+00  1.5634000301361084e-02 2.4814000353217125e-02 0.0000000000000000e+00  -6.1953000724315643e-02 -3.8793001323938370e-02 0.0000000000000000e+00  -6.6427998244762421e-02 -4.7265000641345978e-02 0.0000000000000000e+00  -6.3367001712322235e-02 -4.4633999466896057e-02 0.0000000000000000e+00  -5.4694999009370804e-02 -1.9981000572443008e-02 0.0000000000000000e+00  -5.1739998161792755e-02 -2.3420000448822975e-02 0.0000000000000000e+00  -5.7160001248121262e-02 -2.9079999774694443e-02 0.0000000000000000e+00  -5.5925998836755753e-02 -3.0153000727295876e-02 0.0000000000000000e+00  -3.3256001770496368e-02 -3.2616000622510910e-02 0.0000000000000000e+00  -5.6199997197836637e-04 -1.1284999549388885e-02 0.0000000000000000e+00  -2.0579999312758446e-02 -1.4105999842286110e-02 0.0000000000000000e+00  -5.4260998964309692e-02 -3.6867998540401459e-02 0.0000000000000000e+00  -9.8573997616767883e-02 -9.3069002032279968e-02 0.0000000000000000e+00  -1.1815699934959412e-01 -1.3703200221061707e-01 0.0000000000000000e+00  -1.4277899265289307e-01 -1.4446699619293213e-01 0.0000000000000000e+00  -1.592