<?xml version="1.0"?>
<VTKFile type="UnstructuredGrid"  version="0.1"  >
<UnstructuredGrid>
<Piece  NumberOfPoints="6340" NumberOfCells="12376">
<Points>
<DataArray  type="Float64"  NumberOfComponents="3"  format="ascii">-0.0191469993442297 0.02058600075542927 0  -0.01976300030946732 0.02118499949574471 0  -0.01999999955296516 0.02022000029683113 0  -0.02048099972307682 0.02087399922311306 0  -0.0193840004503727 0.01967299915850163 0  -0.01897799968719482 0.02145300060510635 0  -0.01941899955272675 0.02213500067591667 0  -0.0189679991453886 0.02296300046145916 0  -0.01982299983501434 0.02279900014400482 0  -0.01853399910032749 0.02218599990010262 0  -0.008665000088512897 0.01774900034070015 0  -0.009298999793827534 0.01864499971270561 0  -0.009631999768316746 0.01770699955523014 0  -0.01027300022542477 0.01864200085401535 0  -0.02479499951004982 0.07064200192689896 0  -0.02571200020611286 0.0708950012922287 0  -0.02585499919950962 0.0701339989900589 0  -0.02503100037574768 0.0643950030207634 0  -0.02567600086331367 0.06497900187969208 0  -0.02582200057804585 0.06410299986600876 0  -0.02655999921262264 0.06440000236034393 0  -0.01269599981606007 0.08306500315666199 0  -0.0135319996625185 0.08284299820661545 0  -0.01293199975043535 0.08233500272035599 0  -0.01919399946928024 0.07705099880695343 0  -0.0182460006326437 0.07733800262212753 0  -0.01876600086688995 0.0778999999165535 0  -0.01868100091814995 0.07648099958896637 0  -0.02131099998950958 0.02395300008356571 0  -0.02052100002765656 0.02419799938797951 0  -0.02083400078117847 0.02485200017690659 0  -0.02111000008881092 0.02552100084722042 0  -0.02163900062441826 0.0246140006929636 0  -0.02003699913620949 0.0251030009239912 0  -0.01970499940216541 0.0243769995868206 0  -0.01887499913573265 0.0245360005646944 0  -0.01922100037336349 0.02526599913835526 0  -0.02099299989640713 0.02328100055456161 0  -0.02185500040650368 0.0230689998716116 0  -0.02136999927461147 0.02208000048995018 0  -0.02093799971044064 0.02149399928748608 0  -0.02065099962055683 0.02255400083959103 0  -0.02020500041544437 0.02187700010836124 0  -0.01607199944555759 0.02197800017893314 0  -0.01656799949705601 0.02109700068831444 0  -0.0156440008431673 0.02109199948608875 0  -0.0169259998947382 0.02207599952816963 0  -0.01777300052344799 0.02203899994492531 0  -0.01730200089514256 0.02292600087821484 0  0.03872900083661079 0.07642800360918045 0  0.03857000172138214 0.07554899901151657 0  0.03973700106143951 0.07562299817800522 0  0.03954999893903732 0.0866440013051033 0  0.04022999852895737 0.08686500042676926 0  0.03915299847722054 0.08730699867010117 0  0.02180599980056286 0.09442900121212006 0  0.02208000048995018 0.09374599903821945 0  0.0228669997304678 0.09399300068616867 0  0.02083100005984306 0.09482900053262711 0  0.02112199924886227 0.09400399774312973 0  -0.00890399981290102 0.09073600172996521 0  -0.008119000121951103 0.09103100001811981 0  -0.00876300036907196 0.09151200205087662 0  -0.007965999655425549 0.09181299805641174 0  -0.01883799955248833 0.08923400193452835 0  -0.01907400041818619 0.08862099796533585 0  -0.01813600026071072 0.08892200142145157 0  -0.01971999928355217 0.08918300271034241 0  -0.01672700047492981 0.09447500109672546 0  -0.01709599979221821 0.09509900212287903 0  -0.01742400042712688 0.09442199766635895 0  -0.01197700016200542 0.08912400156259537 0  -0.0112330000847578 0.08932600170373917 0  -0.01187200006097555 0.08981899917125702 0  -0.01274000015109777 0.08892799913883209 0  -0.01210100017488003 0.08843699842691422 0  -0.01286400016397238 0.08824200183153152 0  -0.01541000045835972 0.09017399698495865 0  -0.01600899919867516 0.09064900130033493 0  -0.01621099933981895 0.08996199816465378 0  -0.01414600014686584 0.08921899646520615 0  -0.01493700034916401 0.08902399986982346 0  -0.01429099962115288 0.08854000270366669 0  0.009259999729692936 0.08898100256919861 0  0.01023100037127733 0.08888799697160721 0  0.009566999971866608 0.08954600244760513 0  0.007331000175327063 0.07785599678754807 0  0.00790799967944622 0.07704299688339233 0  0.008301000110805035 0.07776299864053726 0  -0.00839999970048666 0.01683999970555305 0  -0.007612999994307756 0.01702000014483929 0  -0.009238000027835369 0.016762999817729 0  -0.01011199969798326 0.01668299920856953 0  -0.01360000018030405 0.01678000018000603 0  -0.01380699966102839 0.01788300089538097 0  -0.01439900044351816 0.01699900068342686 0  -0.01303999964147806 0.01766899973154068 0  -0.01304300036281347 0.01871299929916859 0  -0.01225499995052814 0.01781200058758259 0  -0.01252899970859289 0.02165899984538555 0  -0.01300700008869171 0.0207080002874136 0  -0.01212299987673759 0.02071700058877468 0  -0.01169800013303757 0.01982700079679489 0  -0.01115499995648861 0.02065899968147278 0  -0.01260400004684925 0.01972600072622299 0  -0.01341500040143728 0.02170299924910069 0  -0.0147709995508194 0.02096300013363361 0  -0.01517700031399727 0.02192899957299232 0  -0.01430200040340424 0.02181600034236908 0  -0.00976100005209446 0.01957800053060055 0  -0.01125000044703484 0.0307180006057024 0  -0.01174599956721067 0.02985600009560585 0  -0.0108200004324317 0.02977200038731098 0  -0.006080000195652246 0.02923800051212311 0  -0.006537000183016062 0.03021200001239777 0  -0.007038999814540148 0.0293589998036623 0  -0.008829999715089798 0.01959500089287758 0  -0.006453999783843756 0.0189059991389513 0  -0.007395999971777201 0.01879199966788292 0  -0.006666999775916338 0.01805599965155125 0  -0.006761999800801277 0.01721500046551228 0  -0.005820000078529119 0.01743000000715256 0  0.0419050008058548 0.08342699706554413 0  0.04272599890828133 0.08281999826431274 0  0.04240600019693375 0.08399300277233124 0  0.04140999913215637 0.08422800153493881 0  0.01496599987149239 0.0575999990105629 0  0.01596399955451488 0.0573589988052845 0  0.01555399969220161 0.05829999968409538 0  0.02734700031578541 0.04101600125432014 0  0.02774599939584732 0.03992399945855141 0  0.02824600040912628 0.04056400060653687 0  0.02961800061166286 0.04479499906301498 0  0.03046200051903725 0.04400600120425224 0  0.0308229997754097 0.04468299821019173 0  0.0295180007815361 0.04820000007748604 0  0.02862099930644035 0.04841199889779091 0  0.0290910005569458 0.04742300137877464 0  0.02863599918782711 0.04668699949979782 0  0.02960100024938583 0.04643100127577782 0  0.02815200015902519 0.04766499996185303 0  0.02769099920988083 0.04864199832081795 0  0.02765499986708164 0.04695999994874001 0  0.02709800004959106 0.04628799855709076 0  0.02666700072586536 0.04722100123763084 0  0.02609200030565262 0.0465410016477108 0  0.03918299823999405 0.08552200347185135 0  0.03817500174045563 0.08562000095844269 0  0.03884899988770485 0.08497100323438644 0  0.03786699846386909 0.08504399657249451 0  0.006298999767750502 0.02332600019872189 0  0.00698699988424778 0.0237639993429184 0  0.006333000026643276 0.02441699989140034 0  0.007079000119119883 0.02474300004541874 0  0.02567099966108799 0.0474729984998703 0  0.02184999920427799 0.05006999894976616 0  0.02143700048327446 0.05100800096988678 0  0.02084599994122982 0.05030800029635429 0  0.02243199944496155 0.05077100172638893 0  0.02818199992179871 0.04938599839806557 0  0.01653300039470196 0.03396200016140938 0  0.0157030001282692 0.03388899937272072 0  0.01606200076639652 0.03295699879527092 0  0.01160600036382675 0.03963899984955788 0  0.01074900012463331 0.03969199955463409 0  0.0111480001360178 0.03876300156116486 0  0.01029099989682436 0.03881600126624107 0  0.009891999885439873 0.03974400088191032 0  0.009832999669015408 0.03793599829077721 0  0.01068999990820885 0.03788800165057182 0  0.01120700035244226 0.0405689999461174 0  -0.02648900076746941 0.06522899866104126 0  -0.02544599957764149 0.06580500304698944 0  -0.02642400003969669 0.06598799675703049 0  -0.02474999986588955 0.06530100107192993 0  -0.02442199923098087 0.06615400314331055 0  -0.02343099936842918 0.06649799644947052 0  -0.02393499948084354 0.06708499789237976 0  -0.02283100038766861 0.06594599783420563 0  -0.02245800010859966 0.06682399660348892 0  -0.02300000004470348 0.06740099936723709 0  -0.02659500017762184 0.06354500353336334 0  -0.01834500022232533 0.07873699814081192 0  -0.01928200013935566 0.07846000045537949 0  -0.01864100061357021 0.08613099902868271 0  -0.01948400028049946 0.08594200015068054 0  -0.01886600069701672 0.08543399721384048 0  -0.01970599964261055 0.08524899929761887 0  -0.01909600012004375 0.08472900092601776 0  -0.01815900020301342 0.08828700333833694 0  -0.01736800000071526 0.08847399801015854 0  -0.01727399975061417 0.08912400156259537 0  -0.01378499995917082 0.08209899812936783 0  -0.01102999970316887 0.07736700028181076 0  -0.01008599996566772 0.07765399664640427 0  -0.01061899960041046 0.07820600271224976 0  -0.01025599986314774 0.07901699841022491 0  -0.009704000316560268 0.07847700268030167 0  -0.01480900030583143 0.07469899952411652 0  -0.01527099963277578 0.07379099726676941 0  -0.01431600004434586 0.07409700006246567 0  -0.01336100045591593 0.07440199702978134 0  -0.0138119999319315 0.07349500060081482 0  -0.01772899925708771 0.076774001121521 0  -0.01723399944603443 0.07618699967861176 0  -0.01819399930536747 0.07588600367307663 0  -0.01915499940514565 0.07558599859476089 0  -0.02356999926269054 0.06797699630260468 0  -0.02418000064790249 0.07008299976587296 0  -0.02379599958658218 0.07096400111913681 0  -0.02211200073361397 0.02359299920499325 0  -0.02236000075936317 0.02410000003874302 0  -0.02252300083637238 0.02458699978888035 0  -0.02269900031387806 0.025110999122262 0  -0.02188199944794178 0.02531100064516068 0  -0.01934799924492836 0.0236629992723465 0  -0.01851099915802479 0.02381199970841408 0  -0.02019000053405762 0.0234839990735054 0  -0.0216049998998642 0.0225600004196167 0  -0.01752300001680851 0.01825699955224991 0  -0.01715400069952011 0.01902100071310997 0  -0.01820999942719936 0.01862999983131886 0  -0.01681900024414062 0.01787400059401989 0  -0.01810500025749207 0.02299400046467781 0  -0.01645899
[...]
<PointData  Vectors="velocity"> 
<DataArray  type="Float64"  Name="velocity"  NumberOfComponents="3" format="ascii">2.7570000384002924e-03 2.6420000940561295e-03 0.0000000000000000e+00  3.0280000064522028e-03 2.8969999402761459e-03 0.0000000000000000e+00  -1.5109999803826213e-03 -3.0219999607652426e-03 0.0000000000000000e+00  -2.8379999566823244e-03 -2.2259999532252550e-03 0.0000000000000000e+00  -2.0999999833293259e-04 -3.2820000778883696e-03 0.0000000000000000e+00  5.9150001034140587e-03 5.3440001793205738e-03 0.0000000000000000e+00  7.2470000013709068e-03 6.4670001156628132e-03 0.0000000000000000e+00  1.1983999982476234e-02 1.0042999871075153e-02 0.0000000000000000e+00  8.4809996187686920e-03 7.4780001305043697e-03 0.0000000000000000e+00  9.8689999431371689e-03 8.3959996700286865e-03 0.0000000000000000e+00  -4.8700001207180321e-04 -4.8499999684281647e-04 0.0000000000000000e+00  1.2509999796748161e-03 4.4000000343658030e-04 0.0000000000000000e+00  -1.6900000628083944e-04 -2.5000001187436283e-04 0.0000000000000000e+00  2.0439999643713236e-03 1.0250000050291419e-03 0.0000000000000000e+00  -8.0739995464682579e-03 -4.6395998448133469e-02 0.0000000000000000e+00  -2.8708999976515770e-02 2.5908999145030975e-02 0.0000000000000000e+00  -2.8708999976515770e-02 2.5439999997615814e-02 0.0000000000000000e+00  -1.5950000379234552e-03 -5.3908001631498337e-02 0.0000000000000000e+00  -3.0950000509619713e-03 -4.9476001411676407e-02 0.0000000000000000e+00  -1.9290000200271606e-03 -4.8925001174211502e-02 0.0000000000000000e+00  -2.8708999976515770e-02 2.1910000592470169e-02 0.0000000000000000e+00  -5.8325000107288361e-02 -8.0441996455192566e-02 0.0000000000000000e+00  -5.3373999893665314e-02 -7.5905002653598785e-02 0.0000000000000000e+00  -5.5980000644922256e-02 -8.3379000425338745e-02 0.0000000000000000e+00  -1.9752999767661095e-02 -6.5154001116752625e-02 0.0000000000000000e+00  -2.2743999958038330e-02 -7.0912003517150879e-02 0.0000000000000000e+00  -2.1658999845385551e-02 -6.4860001206398010e-02 0.0000000000000000e+00  -2.0633000880479813e-02 -7.1029998362064362e-02 0.0000000000000000e+00  3.9599998854100704e-03 3.5890000872313976e-03 0.0000000000000000e+00  8.4680002182722092e-03 7.2739999741315842e-03 0.0000000000000000e+00  7.3409997858107090e-03 6.2380000017583370e-03 0.0000000000000000e+00  7.4629997834563255e-03 6.2480000779032707e-03 0.0000000000000000e+00  3.8950000889599323e-03 3.4839999862015247e-03 0.0000000000000000e+00  1.1451999656856060e-02 9.2489998787641525e-03 0.0000000000000000e+00  1.3377999886870384e-02 1.0936000384390354e-02 0.0000000000000000e+00  1.7999000847339630e-02 1.3996999710798264e-02 0.0000000000000000e+00  1.6521999612450600e-02 1.2701000086963177e-02 0.0000000000000000e+00  5.2970000542700291e-03 4.8460001125931740e-03 0.0000000000000000e+00  -6.3979998230934143e-03 3.5399998887442052e-04 0.0000000000000000e+00  -5.2889999933540821e-03 -7.5599999399855733e-04 0.0000000000000000e+00  -4.0980000048875809e-03 -1.4700000174343586e-03 0.0000000000000000e+00  4.7570001333951950e-03 4.4249999336898327e-03 0.0000000000000000e+00  4.0159998461604118e-03 3.7809999193996191e-03 0.0000000000000000e+00  1.3744999654591084e-02 1.0304000228643417e-02 0.0000000000000000e+00  9.2749996110796928e-03 7.5039998628199100e-03 0.0000000000000000e+00  1.0335000231862068e-02 7.9169999808073044e-03 0.0000000000000000e+00  1.2895000167191029e-02 1.0112999938428402e-02 0.0000000000000000e+00  1.1029999703168869e-02 9.0819997712969780e-03 0.0000000000000000e+00  1.6227999702095985e-02 1.2466000393033028e-02 0.0000000000000000e+00  8.7985001504421234e-02 1.8579900264739990e-01 0.0000000000000000e+00  7.8883998095989227e-02 1.7859099805355072e-01 0.0000000000000000e+00  -3.2930001616477966e-02 -2.3999999393709004e-04 0.0000000000000000e+00  1.5481799840927124e-01 2.5640898942947388e-01 0.0000000000000000e+00  1.5167899429798126e-01 2.5082600116729736e-01 0.0000000000000000e+00  1.5491500496864319e-01 2.6142901182174683e-01 0.0000000000000000e+00  -1.1160999536514282e-02 1.1036500334739685e-01 0.0000000000000000e+00  1.5500000445172191e-03 1.2329799681901932e-01 0.0000000000000000e+00  2.9849999118596315e-03 1.2792700529098511e-01 0.0000000000000000e+00  -2.3785000666975975e-02 9.3809999525547028e-02 0.0000000000000000e+00  -9.5560001209378242e-03 1.0922800004482269e-01 0.0000000000000000e+00  -5.3137000650167465e-02 -6.3431002199649811e-02 0.0000000000000000e+00  -5.5583000183105469e-02 -6.9188997149467468e-02 0.0000000000000000e+00  -4.9451999366283417e-02 -6.0648001730442047e-02 0.0000000000000000e+00  -5.2103001624345779e-02 -6.6563002765178680e-02 0.0000000000000000e+00  -1.0301999747753143e-02 -7.2690001688897610e-03 0.0000000000000000e+00  -1.2323999777436256e-02 -9.5210000872612000e-03 0.0000000000000000e+00  -1.4828000217676163e-02 -1.0537999682128429e-02 0.0000000000000000e+00  -3.3752001821994781e-02 3.7020001560449600e-02 0.0000000000000000e+00  -7.1430001407861710e-03 6.8900000769644976e-04 0.0000000000000000e+00  -3.2956998795270920e-02 3.6263998597860336e-02 0.0000000000000000e+00  -3.3495001494884491e-02 3.6263998597860336e-02 0.0000000000000000e+00  -4.6930000185966492e-02 -4.5214999467134476e-02 0.0000000000000000e+00  -5.0147999078035355e-02 -5.0531998276710510e-02 0.0000000000000000e+00  -4.3568000197410583e-02 -4.1951000690460205e-02 0.0000000000000000e+00  -4.3368998914957047e-02 -4.0486000478267670e-02 0.0000000000000000e+00  -4.9679998308420181e-02 -4.8420999199151993e-02 0.0000000000000000e+00  -4.5823000371456146e-02 -4.3944001197814941e-02 0.0000000000000000e+00  -2.1779999136924744e-02 -1.5712000429630280e-02 0.0000000000000000e+00  -1.7773000523447990e-02 -1.0816000401973724e-02 0.0000000000000000e+00  -1.8814999610185623e-02 -1.2659000232815742e-02 0.0000000000000000e+00  -3.3785000443458557e-02 -2.8186999261379242e-02 0.0000000000000000e+00  -3.0311999842524529e-02 -2.4562999606132507e-02 0.0000000000000000e+00  -3.5923998802900314e-02 -3.1216999515891075e-02 0.0000000000000000e+00  -3.6325000226497650e-02 -1.3613999821245670e-02 0.0000000000000000e+00  -2.6275999844074249e-02 4.6890000812709332e-03 0.0000000000000000e+00  -4.1708000004291534e-02 -1.2144000269472599e-02 0.0000000000000000e+00  7.1082003414630890e-02 2.8268000110983849e-02 0.0000000000000000e+00  8.0367997288703918e-02 4.2656000703573227e-02 0.0000000000000000e+00  7.9449996352195740e-02 4.5680001378059387e-02 0.0000000000000000e+00  1.6620999202132225e-02 5.2889999933540821e-03 0.0000000000000000e+00  1.7312999814748764e-02 5.9799998998641968e-03 0.0000000000000000e+00  1.5654999762773514e-02 4.0810001082718372e-03 0.0000000000000000e+00  1.4646999537944794e-02 2.8200000524520874e-03 0.0000000000000000e+00  1.0576999746263027e-02 -7.5599999399855733e-04 0.0000000000000000e+00  1.4100000262260437e-03 1.2550000101327896e-03 0.0000000000000000e+00  9.0920003131031990e-03 -1.2509999796748161e-03 0.0000000000000000e+00  9.9500000942498446e-04 8.8299997150897980e-04 0.0000000000000000e+00  3.1739999540150166e-03 2.3809999693185091e-03 0.0000000000000000e+00  1.1259999591857195e-03 8.8000000687316060e-04 0.0000000000000000e+00  1.3833999633789062e-02 8.1169996410608292e-03 0.0000000000000000e+00  9.4229998067021370e-03 6.0769999399781227e-03 0.0000000000000000e+00  9.6469996497035027e-03 5.7219997979700565e-03 0.0000000000000000e+00  6.2380000017583370e-03 3.7169998977333307e-03 0.0000000000000000e+00  9.2299999669194221e-03 4.9890000373125076e-03 0.0000000000000000e+00  5.9009999968111515e-03 3.9009999018162489e-03 0.0000000000000000e+00  1.4344999566674232e-02 9.0420003980398178e-03 0.0000000000000000e+00  1.0367999784648418e-02 7.5599998235702515e-03 0.0000000000000000e+00  1.4538999646902084e-02 1.0319000110030174e-02 0.0000000000000000e+00  1.4681999571621418e-02 9.8550003021955490e-03 0.0000000000000000e+00  4.6040001325309277e-03 2.1649999544024467e-03 0.0000000000000000e+00  5.5541001260280609e-02 3.3711999654769897e-02 0.0000000000000000e+00  5.7418998330831528e-02 3.2467000186443329e-02 0.0000000000000000e+00  6.2477000057697296e-02 3.5092998296022415e-02 0.0000000000000000e+00  6.7034997045993805e-02 3.0952999368309975e-02 0.0000000000000000e+00  7.1742996573448181e-02 3.5479001700878143e-02 0.0000000000000000e+00  6.9239996373653412e-02 3.3661000430583954e-02 0.0000000000000000e+00  4.0059997700154781e-03 1.5589999966323376e-03 0.0000000000000000e+00  -1.0590000310912728e-03 -1.4730000402778387e-03 0.0000000000000000e+00  -5.5900000734254718e-04 -8.8299997150897980e-04 0.0000000000000000e+00  -2.3299999884329736e-04 -1.0229999898001552e-03 0.0000000000000000e+00  1.8060000613331795e-02 6.7280000075697899e-03 0.0000000000000000e+00  1.8888000398874283e-02 7.5550000183284283e-03 0.0000000000000000e+00  1.3206200301647186e-01 2.1094299852848053e-01 0.0000000000000000e+00  1.2113399803638458e-01 1.9175900518894196e-01 0.0000000000000000e+00  1.3190999627113342e-01 2.0930400490760803e-01 0.0000000000000000e+00  1.4047700166702271e-01 2.2394700348377228e-01 0.0000000000000000e+00  1.1582499742507935e-01 1.1958900094032288e-01 0.0000000000000000e+00  1.1612100154161453e-01 1.2874799966812134e-01 0.0000000000000000e+00  1.1145900189876556e-01 1.2694899737834930e-01 0.0000000000000000e+00  2.4225000292062759e-02 2.8047999367117882e-02 0.0000000000000000e+00  2.1276999264955521e-02 2.9742000624537468e-02 0.0000000000000000e+00  2.0051000639796257e-02 2.9988000169396400e-02 0.0000000000000000e+00  2.8496000915765762e-02 4.8865001648664474e-02 0.0000000000000000e+00  1.3787999749183655e-02 3.0220000073313713e-02 0.0000000000000000e+00  1.2604000046849251e-02 3.0220000073313713e-02 0.0000000000000000e+00  4.7600001096725464e-02 8.7149001657962799e-02 0.0000000000000000e+00  5.8141000568866730e-02 9.7521997988224030e-02 0.0000000000000000e+00  4.8633001744747162e-02 8.1849999725818634e-02 0.0000000000000000e+00  4.9617998301982880e-02 7.7068999409675598e-02 0.0000000000000000e+00  3.8091998547315598e-02 6.6289998590946198e-02 0.0000000000000000e+00  6.0081001371145248e-02 9.2318996787071228e-02 0.0000000000000000e+00  6.9393999874591827e-02 1.0724099725484848e-01 0.0000000000000000e+00  6.1928000301122665e-02 8.7670996785163879e-02 0.0000000000000000e+00  6.4200997352600098e-02 8.3627000451087952e-02 0.0000000000000000e+00  7.4395999312400818e-02 9.7317002713680267e-02 0.0000000000000000e+00  7.6958999037742615e-02 9.2578999698162079e-02 0.0000000000000000e+00  1.5740500390529633e-01 2.5551798939704895e-01 0.0000000000000000e+00  1.6220000386238098e-01 2.6369398832321167e-01 0.0000000000000000e+00  1.5902200341224670e-01 2.5572600960731506e-01 0.0000000000000000e+00  1.6393600404262543e-01 2.6330599188804626e-01 0.0000000000000000e+00  2.8944000601768494e-02 2.2378999739885330e-02 0.0000000000000000e+00  2.9195999726653099e-02 2.2882999852299690e-02 0.0000000000000000e+00  3.9550000801682472e-03 3.4030000679194927e-03 0.0000000000000000e+00  4.6689999289810658e-03 3.7509999237954617e-03 0.0000000000000000e+00  8.6470998823642731e-02 1.0492199659347534e-01 0.0000000000000000e+00  1.2558600306510925e-01 1.3014799356460571e-01 0.0000000000000000e+00  1.2791199982166290e-01 1.3532499969005585e-01 0.0000000000000000e+00  1.3182500004768372e-01 1.2890000641345978e-01 0.0000000000000000e+00  1.2143900245428085e-01 1.3654400408267975e-01 0.0000000000000000e+00  6.6529996693134308e-02 1.1232999712228775e-01 0.0000000000000000e+00  3.1465001404285431e-02 2.1212000399827957e-02 0.0000000000000000e+00  3.4703001379966736e-02 2.3497000336647034e-02 0.0000000000000000e+00  2.4080999195575714e-02 1.7680000513792038e-02 0.0000000000000000e+00  1.3175499439239502e-01 6.5801002085208893e-02 0.0000000000000000e+00  1.3532699644565582e-01 6.3423998653888702e-02 0.0000000000000000e+00  1.2579299509525299e-01 6.1124999076128006e-02 0.0000000000000000e+00  1.2973099946975708e-01 5.9039000421762466e-02 0.0000000000000000e+00  1.3817299902439117e-01 6.0026999562978745e-02 0.0000000000000000e+00  1.2224200367927551e-01 5.4269999265670776e-02 0.0000000000000000e+00  1.1816299706697464e-01 5.6249998509883881e-02 0.0000000000000000e+00  1.3985399901866913e-01 6.7666001617908478e-02 0.0000000000000000e+00  -2.8708999976515770e-02 2.2421000525355339e-02 0.0000000000000000e+00  -3.6510000936686993e-03 -5.0055999308824539e-02 0.0000000000000000e+00  -2.8708999976515770e-02 2.2888999432325363e-02 0.0000000000000000e+00  -3.1429999507963657e-03 -5.5300001055002213e-02 0.0000000000000000e+00  -4.1530001908540726e-03 -5.6552998721599579e-02 0.0000000000000000e+00  -4.8770001158118248e-03 -6.2913998961448669e-02 0.0000000000000000e+00  -5.4239998571574688e-03 -5.8497998863458633e-02 0.0000000000000000e+00  -4.0400000289082527e-03 -6.7827999591827393e-02 0.0000000000000000e+00  -5.8079999871551991e-03 -6.9252997636795044e-02 0.0000000000000000e+00  -6.4449999481439590e-03 -6.4522996544837952e-02 0.0000000000000000e+00  -2.8973000124096870e-02 2.1646000444889069e-02 0.0000000000000000e+00  -2.3406999185681343e-02 -6.4060002565383911e-02 0.0000000000000000e+00  -2.0158000290393829e-02 -5.8809999376535416e-02 0.0000000000000000e+00  -1.9458999857306480e-02 -2.2414000704884529e-02 0.0000000000000000e+00  -1.6016999259591103e-02 -2.0129999145865440e-02 0.0000000000000000e+00  -2.0159000530838966e-02 -2.5356000289320946e-02 0.0000000000000000e+00  -1.6517000272870064e-02 -2.2647999227046967e-02 0.0000000000000000e+00  -2.0445000380277634e-02 -2.8160000219941139e-02 0.0000000000000000e+00  -1.6819000244140625e-02 -1.3240000233054161e-02 0.0000000000000000e+00  -1.9942000508308411e-02 -1.5453999862074852e-02 0.0000000000000000e+00  -1.7890000715851784e-02 -1.2608000077307224e-02 0.0000000000000000e+00  -5.0937999039888382e-02 -7.8883998095989227e-02 0.0000000000000000e+00  -4.2458999902009964e-02 -1.1687800288200378e-01 0.0000000000000000e+00  -4.4805999845266342e-02 -1.1907800287008286e-01 0.0000000000000000e+00  -4.7162998467683792e-02 -1.1603800207376480e-01 0.0000000000000000e+00  -5.2009001374244690e-02 -1.1448500305414200e-01 0.0000000000000000e+00  -4.9674998968839645e-02 -1.1789300292730331e-01 0.0000000000000000e+00  -2.8968999162316322e-02 -1.0522899776697159e-01 0.0000000000000000e+00  -2.6517000049352646e-02 -1.0481400042772293e-01 0.0000000000000000e+00  -2.8310000896453857e-02 -1.0980500280857086e-01 0.0000000000000000e+00  -3.0113000422716141e-02 -1.1432500183582306e-01 0.0000000000000000e+00  -2.7411999180912971e-02 -1.1399900168180466e-01 0.0000000000000000e+00  -2.3538999259471893e-02 -7.6955996453762054e-02 0.0000000000000000e+00  -2.4612000212073326e-02 -8.2974001765251160e-02 0.0000000000000000e+00  -2.1857000887393951e-02 -7.6906003057956696e-02 0.0000000000000000e+00  -1.9267000257968903e-02 -7.0767000317573547e-02 0.0000000000000000e+00  -6.8789999932050705e-03 -5.9597000479698181e-02 0.0000000000000000e+00  -8.7179997935891151e-03 -5.1536001265048981e-02 0.0000000000000000e+00  -9.4060003757476807e-03 -5.1899001002311707e-02 0.0000000000000000e+00  -6.9860001094639301e-03 9.4200001331046224e-04 0.0000000000000000e+00  -7.5550000183284283e-03 1.5109999803826213e-03 0.0000000000000000e+00  -8.2590002566576004e-03 2.2150001022964716e-03 0.0000000000000000e+00  -9.0180002152919769e-03 2.9740000609308481e-03 0.0000000000000000e+00  4.2159999720752239e-03 3.7010000087320805e-03 0.0000000000000000e+00  1.3275000266730785e-02 1.0987999849021435e-02 0.0000000000000000e+00  1.7054999247193336e-02 1.3426999561488628e-02 0.0000000000000000e+00  9.3200001865625381e-03 8.1120003014802933e-03 0.0000000000000000e+00  -5.8269998989999294e-03 -2.1699999342672527e-04 0.0000000000000000e+00  3.4620000515133142e-03 -3.2989999745041132e-03 0.0000000000000000e+00  2.2319999989122152e-03 2.1140000317245722e-03 0.0000000000000000e+00  2.2670000325888395e-03 -3.7779998965561390e-03 0.0000000000000000e+00  4.6879998408257961e-03 -2.8089999686926603e-03 0.0000000000000000e+00  1.4566999860107899e-02 1.1655000038444996e-02 0.0000000000000000e+00  1.7998000606894493e-02 1.3158000074326992e-02 0.0000000000000000e+00  2.3923000320792198e-02 1.6297999769449234e-02 0.0000000000000000e+00  2.2044999524950981e-02 1.5811000019311905e-02 0.0000000000000000e+00  5.1038999110460281e-02 3.0714999884366989e-02 0.0000000000000000e+00  4.8569999635219574e-02 3.1674999743700027e-02 0.0000000000000000e+00  4.3028000742197037e-02 2.7791000902652740e-02 0.0000000000000000e+00  1.3593999668955803e-02 7.3759998194873333e-03 0.0000000000000000e+00  2.4771999567747116e-02 1.1939999647438526e-02 0.0000000000000000e+00  3.1151000410318375e-02 1.4657000079751015e-02 0.0000000000000000e+00  3.2423999160528183e-02 1.5869000926613808e-02 0.0000000000000000e+00  2.3327000439167023e-02 1.0680000297725201e-02 0.0000000000000000e+00  1.7862999811768532e-02 8.4490003064274788e-03 0.0000000000000000e+00  3.7592999637126923e-02 1.7647000029683113e-02 0.0000000000000000e+00  4.4142998754978180e-02 2.0921999588608742e-02 0.0000000000000000e+00  4.6682998538017273e-02 2.2569999098777771e-02 0.0000000000000000e+00  1.3895000517368317e-01 2.2030700743198395e-01 0.0000000000000000e+00  1.3451099395751953e-01 2.1044099330902100e-01 0.0000000000000000e+00  1.4132900536060333e-01 2.2506900131702423e-01 0.0000000000000000e+00  1.5390199422836304e-01 2.4543499946594238e-01 0.0000000000000000e+00  1.5423899888992310e-01 2.4607999622821808e-01 0.0000000000000000e+00  1.6057099401950836e-01 2.5500699877738953e-01 0.0000000000000000e+00  1.6144299507141113e-01 2.5930300354957581e-01 0.0000000000000000e+00  1.6583800315856934e-01 2.6182401180267334e-01 0.0000000000000000e+00  1.5730600059032440e-01 2.5813999772071838e-01 0.0000000000000000e+00  -3.1730998307466507e-02 0.0000000000000000e+00 0.0000000000000000e+00  1.5273299813270569e-01 2.6968100666999817e-01 0.0000000000000000e+00  1.4795899391174316e-01 2.6832500100135803e-01 0.0000000000000000e+00  1.5479399263858795e-01 2.7067199349403381e-01 0.0000000000000000e+00  1.5689900517463684e-01 2.6848098635673523e-01 0.0000000000000000e+00  1.5351699292659760e-01 2.6694101095199585e-01 0.0000000000000000e+00  1.5421600639820099e-01 2.6424801349639893e-01 0.0000000000000000e+00  1.6695800423622131e-01 2.6733499765396118e-01 0.0000000000000000e+00  1.6513100266456604e-01 2.6268398761749268e-01 0.0000000000000000e+00  1.6848599910736084e-01 2.6669400930404663e-01 0.0000000000000000e+00  1.6573299467563629e-01 2.6183998584747314e-01 0.0000000000000000e+00  1.5602000057697296e-01 2.5598099827766418e-01 0.0000000000000000e+00  1.5748000144958496e-01 2.6392599940299988e-01 0.0000000000000000e+00  1.5939299762248993e-01 2.6724600791931152e-01 0.0000000000000000e+00  1.6031800210475922e-01 2.7162799239158630e-01 0.0000000000000000e+00  1.6105900704860687e-01 2.7196899056434631e-01 0.0000000000000000e+00  1.6437000036239624e-01 2.7184298634529114e-01 0.0000000000000000e+00  1.5996000170707703e-01 2.6359501481056213e-01 0.0000000000000000e+00  -4.8728000372648239e-02 5.8249000459909439e-02 0.0000000000000000e+00  -5.9181001037359238e-02 4.1388999670743942e-02 0.0000000000000000e+00  -5.0276998430490494e-02 5.2253998816013336e-02 0.0000000000000000e+00  -1.4925000257790089e-02 9.9753998219966888e-02 0.0000000000000000e+00  -2.3629000410437584e-02 9.2288002371788025e-02 0.0000000000000000e+00  -3.0110999941825867e-02 8.2258000969886780e-02 0.0000000000000000e+00  -3.6717999726533890e-02 7.5939998030662537e-02 0.0000000000000000e+00  -4.8973999917507172e-02 -5.2266001701354980e-02 0.0000000000000000e+00  -4.1671000421047211e-02 -4.3912000954151154e-02 0.0000000000000000e+00  -4.6353001147508621e-02 -4.7185000032186508e-02 0.0000000000000000e+00  -5.3291000425815582e-02 -5.5668000131845474e-02 0.0000000000000000e+00  -6.0931999236345291e-02 -7.2153002023696899e-02 0.0000000000000000e+00  -6.4865000545978546e-02 -9.4071000814437866e-02 0.0000000000000000e+00  -6.7395001649856567e-02 -9.4875998795032501e-02 0.0000000000000000e+00  -7.1462996304035187e-02 -1.0093499720096588e-01 0.0000000000000000e+00  -4.651