<?xml version="1.0"?>
<VTKFile type="UnstructuredGrid"  version="0.1"  >
<UnstructuredGrid>
<Piece  NumberOfPoints="6340" NumberOfCells="12376">
<Points>
<DataArray  type="Float64"  NumberOfComponents="3"  format="ascii">-0.01941500045359135 0.02072699926793575 0  -0.02006899937987328 0.02137999981641769 0  -0.0203000009059906 0.02040000073611736 0  -0.02082699909806252 0.02113099955022335 0  -0.01964900083839893 0.01980799995362759 0  -0.01924999989569187 0.02160199917852879 0  -0.01972400024533272 0.02233400009572506 0  -0.01926299929618835 0.0231500007212162 0  -0.02016899921000004 0.02306799963116646 0  -0.01879600062966347 0.02232600003480911 0  -0.0088919997215271 0.01759300008416176 0  -0.009506000205874443 0.0185100007802248 0  -0.009840000420808792 0.01757200062274933 0  -0.01046099979430437 0.01853000000119209 0  -0.02508299984037876 0.07447700202465057 0  -0.02599699981510639 0.07487399876117706 0  -0.02616200037300587 0.07409399747848511 0  -0.02557500079274178 0.0679590031504631 0  -0.02618899941444397 0.06866200268268585 0  -0.02637900039553642 0.0677649974822998 0  -0.02710000053048134 0.06818000227212906 0  -0.01260800007730722 0.08632399886846542 0  -0.01349399983882904 0.08617399632930756 0  -0.01291599962860346 0.08550900220870972 0  -0.01936299912631512 0.08050499856472015 0  -0.01840700022876263 0.0806799978017807 0  -0.01892700046300888 0.08137000352144241 0  -0.01885000057518482 0.07980900257825851 0  -0.02180000022053719 0.02447599917650223 0  -0.02094700001180172 0.02460700087249279 0  -0.02131200022995472 0.02535999938845634 0  -0.02163599990308285 0.02612300030887127 0  -0.02218100056052208 0.02524000033736229 0  -0.02045099996030331 0.02549500018358231 0  -0.0200789999216795 0.02469800040125847 0  -0.01919900067150593 0.02477799914777279 0  -0.01958400011062622 0.02557500079274178 0  -0.02143100090324879 0.02370299957692623 0  -0.02236299961805344 0.02362100034952164 0  -0.02180000022053719 0.02247999981045723 0  -0.02132700011134148 0.02182500064373016 0  -0.02104499936103821 0.02289899997413158 0  -0.02055500075221062 0.02214699983596802 0  -0.01624299958348274 0.02200499922037125 0  -0.01674499921500683 0.02112800069153309 0  -0.01580199971795082 0.02110200002789497 0  -0.01711699925363064 0.02212600037455559 0  -0.01799999922513962 0.02213400043547153 0  -0.0175199992954731 0.0230139996856451 0  0.04236099869012833 0.07933799922466278 0  0.04199599847197533 0.07851900160312653 0  0.04330499842762947 0.07868500053882599 0  0.0454769991338253 0.08951500058174133 0  0.04627899825572968 0.08979800343513489 0  0.04517500102519989 0.09030500054359436 0  0.02740800008177757 0.09847299754619598 0  0.02756999991834164 0.09765499830245972 0  0.02849500067532063 0.09797299653291702 0  0.02641000039875507 0.09893199801445007 0  0.02655999921262264 0.09794300049543381 0  -0.006606999784708023 0.09488900005817413 0  -0.005669999867677689 0.09505199640989304 0  -0.006252999883145094 0.0957150012254715 0  -0.005309999920427799 0.09588100016117096 0  -0.01813999935984612 0.09439899772405624 0  -0.01849799975752831 0.09369400143623352 0  -0.01744800060987473 0.0939439982175827 0  -0.01908599957823753 0.09444300085306168 0  -0.01438399963080883 0.100442998111248 0  -0.01461299974471331 0.1012270003557205 0  -0.01520099956542253 0.1004789993166924 0  -0.01058300025761127 0.09349899739027023 0  -0.009672000072896481 0.093640998005867 0  -0.0102530000731349 0.09430799633264542 0  -0.01149499975144863 0.09335099905729294 0  -0.01091300044208765 0.09268499910831451 0  -0.01182600017637014 0.09253700077533722 0  -0.01415100041776896 0.0951559990644455 0  -0.01469200011342764 0.09579700231552124 0  -0.0150969997048378 0.09499000012874603 0  -0.01299499999731779 0.09386000037193298 0  -0.01392299961298704 0.09371300041675568 0  -0.01332900021225214 0.09305500239133835 0  0.01234200038015842 0.09159799665212631 0  0.01340099982917309 0.09150899946689606 0  0.01280099991708994 0.09228699654340744 0  0.007872000336647034 0.07813499867916107 0  0.008338999934494495 0.07732599973678589 0  0.00892999954521656 0.07804600149393082 0  -0.00863999966531992 0.01666999980807304 0  -0.007861999794840813 0.01682600006461143 0  -0.009461999870836735 0.01661200076341629 0  -0.01031900011003017 0.01655199937522411 0  -0.01374999992549419 0.016720000654459 0  -0.01395399961620569 0.01783400028944016 0  -0.01454900018870831 0.01695599965751171 0  -0.01319199986755848 0.01760400086641312 0  -0.01318799983710051 0.01865500025451183 0  -0.01241800002753735 0.01773400045931339 0  -0.01266799960285425 0.02161099947988987 0  -0.01314700022339821 0.02066200040280819 0  -0.0122680002823472 0.02065600082278252 0  -0.01185499969869852 0.01975099928677082 0  -0.01131400000303984 0.02057800069451332 0  -0.01274900045245886 0.01966699957847595 0  -0.01355300005525351 0.02167100086808205 0  -0.01491199992597103 0.02095199935138226 0  -0.01532999984920025 0.021934999153018 0  -0.0144410002976656 0.02180200070142746 0  -0.009952000342309475 0.01946200057864189 0  -0.01136600039899349 0.03070599958300591 0  -0.01186500024050474 0.02984699979424477 0  -0.01093900017440319 0.02974499948322773 0  -0.006264999974519014 0.02910999953746796 0  -0.006703999824821949 0.03010299988090992 0  -0.007203999906778336 0.02925500087440014 0  -0.009038999676704407 0.01945699937641621 0  -0.006705999840050936 0.01869099959731102 0  -0.00763599993661046 0.01860800012946129 0  -0.006922000087797642 0.01784100010991096 0  -0.007021000143140554 0.01699399948120117 0  -0.006089999806135893 0.01717999950051308 0  0.04740900173783302 0.08590800315141678 0  0.04818300157785416 0.0854249969124794 0  0.04808900132775307 0.08646299690008163 0  0.04703599959611893 0.08664599806070328 0  0.01528200041502714 0.05803899839520454 0  0.01629400067031384 0.0578560009598732 0  0.01586900092661381 0.05878100171685219 0  0.02797999978065491 0.04202299937605858 0  0.02839300036430359 0.04094399884343147 0  0.02889999933540821 0.04162000119686127 0  0.03034799918532372 0.04599399864673615 0  0.03122000023722649 0.04525100067257881 0  0.03160599991679192 0.04597000032663345 0  0.03029200062155724 0.04947400093078613 0  0.02935300022363663 0.04961400106549263 0  0.02983099967241287 0.0486380010843277 0  0.02934600040316582 0.04785399883985519 0  0.03035099990665913 0.04766299948096275 0  0.02885299921035767 0.04881599918007851 0  0.02838299982249737 0.04977900162339211 0  0.02832500077784061 0.04805999994277954 0  0.02773699909448624 0.04733999818563461 0  0.02729699946939945 0.0482570007443428 0  0.02669399976730347 0.04753300175070763 0  0.04483500123023987 0.08815299719572067 0  0.04373700171709061 0.08824700117111206 0  0.04434999823570251 0.08748099952936172 0  0.04327499866485596 0.0875450000166893 0  0.006393000017851591 0.02289500087499619 0  0.007127000018954277 0.02335200086236 0  0.006428999826312065 0.02399599924683571 0  0.00722600007429719 0.02434300072491169 0  0.0262640006840229 0.04845000058412552 0  0.02233099937438965 0.05084199830889702 0  0.02190399914979935 0.05176499858498573 0  0.02130500040948391 0.05102400109171867 0  0.02292600087821484 0.05158599838614464 0  0.02890899963676929 0.05058100074529648 0  0.0171119999140501 0.03413999825716019 0  0.01626200042665005 0.03401099890470505 0  0.01663599908351898 0.03308999910950661 0  0.01199799962341785 0.03958699852228165 0  0.01110200025141239 0.03959200158715248 0  0.01152100041508675 0.0386740006506443 0  0.01062399987131357 0.03867999836802483 0  0.01020499970763922 0.03959599882364273 0  0.01014399994164705 0.0377659983932972 0  0.01104300003498793 0.03776299953460693 0  0.01157900039106607 0.04050499945878983 0  -0.02698799967765808 0.06904000043869019 0  -0.0259189996868372 0.06949499994516373 0  -0.02688599936664104 0.06982599943876266 0  -0.02525000087916851 0.0688679963350296 0  -0.02488099969923496 0.06971599906682968 0  -0.02387499995529652 0.06993599981069565 0  -0.0243500005453825 0.0706230029463768 0  -0.02330400049686432 0.06927099823951721 0  -0.02288799919188023 0.07013899832963943 0  -0.02340099960565567 0.07082100212574005 0  -0.0271770004183054 0.06729000061750412 0  -0.01849799975752831 0.08222600072622299 0  -0.01944399997591972 0.08205699920654297 0  -0.01841899938881397 0.09068299829959869 0  -0.01931600086390972 0.09057000279426575 0  -0.01873400062322617 0.08989500254392624 0  -0.01962600089609623 0.08978699892759323 0  -0.01904500089585781 0.08910299837589264 0  -0.01758299954235554 0.09318500012159348 0  -0.01670899987220764 0.09331600368022919 0  -0.01646599918603897 0.09408999979496002 0  -0.01380299963057041 0.0853549987077713 0  -0.01113799959421158 0.07965700328350067 0  -0.01018599979579449 0.07983300089836121 0  -0.0107190003618598 0.0805170014500618 0  -0.01034799963235855 0.08136100322008133 0  -0.009794999845325947 0.08068300038576126 0  -0.01495799981057644 0.07732900232076645 0  -0.0154370004311204 0.07643099874258041 0  -0.01447200030088425 0.07661700248718262 0  -0.01350599993020296 0.07680299878120422 0  -0.0139769995585084 0.07590799778699875 0  -0.01789000071585178 0.07998800277709961 0  -0.01739300042390823 0.07928100228309631 0  -0.01836000010371208 0.0790959969162941 0  -0.0193290002644062 0.07891400158405304 0  -0.02394399978220463 0.07150699943304062 0  -0.02448100037872791 0.07380200177431107 0  -0.02407200075685978 0.07467299699783325 0  -0.0226610004901886 0.02422500029206276 0  -0.02294999919831753 0.02480999939143658 0  -0.0231500007212162 0.02538600005209446 0  -0.02336600050330162 0.02600499987602234 0  -0.02247299998998642 0.02603599987924099 0  -0.01968299970030785 0.02391799911856651 0  -0.01879500038921833 0.02398700080811977 0  -0.02057499997317791 0.02381899952888489 0  -0.02207300066947937 0.02303400076925755 0  -0.01770799979567528 0.01828799955546856 0  -0.01733399927616119 0.01905000023543835 0  -0.01840999908745289 0.01868000067770481 0  -0.01698699966073036 0.0178849995136261 0  -0.01836000010371208 0.02312600053846836 0  -0.0166420005261898 
[...]
<PointData  Vectors="velocity"> 
<DataArray  type="Float64"  Name="velocity"  NumberOfComponents="3" format="ascii">4.2659998871386051e-03 2.7330000884830952e-03 0.0000000000000000e+00  3.8509999867528677e-03 2.5120000354945660e-03 0.0000000000000000e+00  0.0000000000000000e+00 0.0000000000000000e+00 0.0000000000000000e+00  0.0000000000000000e+00 0.0000000000000000e+00 0.0000000000000000e+00  -2.6000000070780516e-04 2.6000000070780516e-04 0.0000000000000000e+00  8.0810002982616425e-03 5.5630002170801163e-03 0.0000000000000000e+00  8.2529997453093529e-03 5.7660001330077648e-03 0.0000000000000000e+00  1.2597999535501003e-02 8.5939997807145119e-03 0.0000000000000000e+00  8.2080001011490822e-03 5.7780002243816853e-03 0.0000000000000000e+00  1.2698000296950340e-02 8.6200004443526268e-03 0.0000000000000000e+00  9.8829995840787888e-03 2.1399999968707561e-04 0.0000000000000000e+00  1.3259000144898891e-02 2.2960000205785036e-03 0.0000000000000000e+00  1.0083000175654888e-02 4.6000001020729542e-04 0.0000000000000000e+00  1.3775999657809734e-02 2.8619999065995216e-03 0.0000000000000000e+00  -1.8241999670863152e-02 -5.7038001716136932e-02 0.0000000000000000e+00  1.0843999683856964e-02 -2.0131999626755714e-02 0.0000000000000000e+00  1.1079000309109688e-02 -1.9897000864148140e-02 0.0000000000000000e+00  -1.0777999646961689e-02 -7.6655000448226929e-02 0.0000000000000000e+00  -1.2001999653875828e-02 -6.8416997790336609e-02 0.0000000000000000e+00  -9.8219998180866241e-03 -6.8332001566886902e-02 0.0000000000000000e+00  1.1332999914884567e-02 -1.8131999298930168e-02 0.0000000000000000e+00  -7.8561998903751373e-02 -9.7520001232624054e-02 0.0000000000000000e+00  -7.1547001600265503e-02 -8.8964000344276428e-02 0.0000000000000000e+00  -7.9318001866340637e-02 -1.0131099820137024e-01 0.0000000000000000e+00  -4.4252000749111176e-02 -7.2328001260757446e-02 0.0000000000000000e+00  -5.1410000771284103e-02 -8.1234000623226166e-02 0.0000000000000000e+00  -4.6110000461339951e-02 -6.9796003401279449e-02 0.0000000000000000e+00  -5.2868999540805817e-02 -8.4179997444152832e-02 0.0000000000000000e+00  2.7840000111609697e-03 1.6509999986737967e-03 0.0000000000000000e+00  6.2979999929666519e-03 4.2119999416172504e-03 0.0000000000000000e+00  4.7349999658763409e-03 2.9710000380873680e-03 0.0000000000000000e+00  4.0040002204477787e-03 2.4480000138282776e-03 0.0000000000000000e+00  2.4250000715255737e-03 1.4049999881535769e-03 0.0000000000000000e+00  7.9889995977282524e-03 5.0969999283552170e-03 0.0000000000000000e+00  1.0789999738335609e-02 7.2670001536607742e-03 0.0000000000000000e+00  1.5332000330090523e-02 1.0001000016927719e-02 0.0000000000000000e+00  1.2616000138223171e-02 8.0249998718500137e-03 0.0000000000000000e+00  4.2710001580417156e-03 2.9569999314844608e-03 0.0000000000000000e+00  7.3999998858198524e-04 0.0000000000000000e+00 0.0000000000000000e+00  0.0000000000000000e+00 0.0000000000000000e+00 0.0000000000000000e+00  0.0000000000000000e+00 0.0000000000000000e+00 0.0000000000000000e+00  4.3629999272525311e-03 3.0509999487549067e-03 0.0000000000000000e+00  4.2710001580417156e-03 2.9190001077950001e-03 0.0000000000000000e+00  2.5373000651597977e-02 1.5230000019073486e-02 0.0000000000000000e+00  1.8936999142169952e-02 1.1797999963164330e-02 0.0000000000000000e+00  2.3543000221252441e-02 1.3875000178813934e-02 0.0000000000000000e+00  2.1002000197768211e-02 1.3194999657571316e-02 0.0000000000000000e+00  1.6227999702095985e-02 1.0665999725461006e-02 0.0000000000000000e+00  2.1625999361276627e-02 1.3639000244438648e-02 0.0000000000000000e+00  7.5443997979164124e-02 1.1285900324583054e-01 0.0000000000000000e+00  7.2926998138427734e-02 1.1458300054073334e-01 0.0000000000000000e+00  -1.5350000001490116e-02 -3.3962000161409378e-02 0.0000000000000000e+00  8.8110998272895813e-02 1.1786299943923950e-01 0.0000000000000000e+00  8.1988997757434845e-02 1.0839500278234482e-01 0.0000000000000000e+00  8.6880996823310852e-02 1.2211000174283981e-01 0.0000000000000000e+00  -3.5537000745534897e-02 9.9312998354434967e-02 0.0000000000000000e+00  -2.9562000185251236e-02 1.1430799961090088e-01 0.0000000000000000e+00  -2.4950999766588211e-02 1.1256200075149536e-01 0.0000000000000000e+00  -4.4640000909566879e-02 8.6745999753475189e-02 0.0000000000000000e+00  -3.9322998374700546e-02 1.0493300110101700e-01 0.0000000000000000e+00  -8.6520999670028687e-02 -8.6465001106262207e-02 0.0000000000000000e+00  -9.3744002282619476e-02 -9.4595998525619507e-02 0.0000000000000000e+00  -8.4922999143600464e-02 -8.2700997591018677e-02 0.0000000000000000e+00  -9.2453002929687500e-02 -9.0727999806404114e-02 0.0000000000000000e+00  -6.0859997756779194e-03 2.6070000603795052e-03 0.0000000000000000e+00  -5.4850000888109207e-03 1.1239999439567327e-03 0.0000000000000000e+00  -8.7989997118711472e-03 1.1139999842271209e-03 0.0000000000000000e+00  6.7810001783072948e-03 -3.1504001468420029e-02 0.0000000000000000e+00  7.9999999798019417e-06 1.0444999672472477e-02 0.0000000000000000e+00  -4.9200002104043961e-03 -4.0327999740839005e-02 0.0000000000000000e+00  -2.7660001069307327e-03 -3.9788998663425446e-02 0.0000000000000000e+00  -6.1037998646497726e-02 -5.3275998681783676e-02 0.0000000000000000e+00  -6.8465001881122589e-02 -6.2905997037887573e-02 0.0000000000000000e+00  -5.7289000600576401e-02 -4.9582000821828842e-02 0.0000000000000000e+00  -5.3800001740455627e-02 -4.4886000454425812e-02 0.0000000000000000e+00  -6.1719998717308044e-02 -5.7293999940156937e-02 0.0000000000000000e+00  -5.4219000041484833e-02 -4.8464000225067139e-02 0.0000000000000000e+00  -2.3630000650882721e-02 -7.7269999310374260e-03 0.0000000000000000e+00  -1.8442999571561813e-02 -1.3830000534653664e-03 0.0000000000000000e+00  -1.8378999084234238e-02 -2.7040001004934311e-03 0.0000000000000000e+00  -3.7087000906467438e-02 -2.4749999865889549e-02 0.0000000000000000e+00  -3.1067999079823494e-02 -1.8592000007629395e-02 0.0000000000000000e+00  -3.9932999759912491e-02 -2.8728999197483063e-02 0.0000000000000000e+00  -8.4968000650405884e-02 4.4319000095129013e-02 0.0000000000000000e+00  -7.7477000653743744e-02 6.3257001340389252e-02 0.0000000000000000e+00  -9.3180999159812927e-02 4.7887001186609268e-02 0.0000000000000000e+00  1.2780999764800072e-02 8.2829996943473816e-02 0.0000000000000000e+00  1.9369000568985939e-02 9.7337998449802399e-02 0.0000000000000000e+00  2.4421999230980873e-02 9.8287001252174377e-02 0.0000000000000000e+00  -3.7779998965561390e-03 2.2670000325888395e-03 0.0000000000000000e+00  -4.2389999143779278e-03 2.4969999212771654e-03 0.0000000000000000e+00  -3.2939999364316463e-03 2.0250000525265932e-03 0.0000000000000000e+00  -2.7900000568479300e-03 1.7729999963194132e-03 0.0000000000000000e+00  -1.5109999803826213e-03 7.5599999399855733e-04 0.0000000000000000e+00  8.3079999312758446e-03 2.1359999664127827e-03 0.0000000000000000e+00  -1.5109999803826213e-03 7.5599999399855733e-04 0.0000000000000000e+00  7.9849995672702789e-03 1.1670000385493040e-03 0.0000000000000000e+00  1.4310000464320183e-02 5.1719998009502888e-03 0.0000000000000000e+00  9.2970002442598343e-03 1.3259999686852098e-03 0.0000000000000000e+00  3.7762001156806946e-02 1.8853999674320221e-02 0.0000000000000000e+00  2.9289999976754189e-02 1.4298999682068825e-02 0.0000000000000000e+00  3.1125999987125397e-02 1.4441999606788158e-02 0.0000000000000000e+00  2.3517999798059464e-02 9.5309996977448463e-03 0.0000000000000000e+00  3.0972000211477280e-02 1.3469000346958637e-02 0.0000000000000000e+00  2.2134000435471535e-02 9.5389997586607933e-03 0.0000000000000000e+00  3.6309000104665756e-02 1.8978999927639961e-02 0.0000000000000000e+00  2.6570999994874001e-02 1.4771999791264534e-02 0.0000000000000000e+00  3.0024999752640724e-02 1.7185000702738762e-02 0.0000000000000000e+00  3.3624999225139618e-02 1.8394000828266144e-02 0.0000000000000000e+00  1.9659999758005142e-02 6.1289998702704906e-03 0.0000000000000000e+00  4.3303001672029495e-02 3.3826000988483429e-02 0.0000000000000000e+00  4.4270999729633331e-02 3.4710999578237534e-02 0.0000000000000000e+00  5.1426000893115997e-02 3.8012001663446426e-02 0.0000000000000000e+00  8.1423997879028320e-02 4.6250998973846436e-02 0.0000000000000000e+00  8.0698996782302856e-02 4.5581001788377762e-02 0.0000000000000000e+00  7.6443001627922058e-02 4.5262001454830170e-02 0.0000000000000000e+00  1.8526000902056694e-02 5.3050001151859760e-03 0.0000000000000000e+00  1.0425999760627747e-02 1.3569999719038606e-03 0.0000000000000000e+00  1.1687000282108784e-02 1.6380000161007047e-03 0.0000000000000000e+00  7.5130001641809940e-03 -3.9999998989515007e-04 0.0000000000000000e+00  -4.7369999811053276e-03 2.7459999546408653e-03 0.0000000000000000e+00  -5.2889999933540821e-03 3.0219999607652426e-03 0.0000000000000000e+00  7.3579996824264526e-02 7.7919997274875641e-02 0.0000000000000000e+00  6.6560998558998108e-02 6.5234996378421783e-02 0.0000000000000000e+00  6.8415999412536621e-02 7.4170999228954315e-02 0.0000000000000000e+00  7.7238999307155609e-02 8.7480999529361725e-02 0.0000000000000000e+00  1.0952500253915787e-01 1.6655899584293365e-01 0.0000000000000000e+00  1.1059799790382385e-01 1.7289599776268005e-01 0.0000000000000000e+00  1.0038200020790100e-01 1.7255100607872009e-01 0.0000000000000000e+00  3.3107001334428787e-02 3.3966001123189926e-02 0.0000000000000000e+00  -2.4453999474644661e-02 -1.1888000182807446e-02 0.0000000000000000e+00  -2.4699000641703606e-02 -1.2378999963402748e-02 0.0000000000000000e+00  3.7919998168945312e-02 5.4648999124765396e-02 0.0000000000000000e+00  -2.5686999782919884e-02 -1.5147999860346317e-02 0.0000000000000000e+00  -2.5686999782919884e-02 -1.5859000384807587e-02 0.0000000000000000e+00  5.1773000508546829e-02 9.8699003458023071e-02 0.0000000000000000e+00  6.2982000410556793e-02 1.1130599677562714e-01 0.0000000000000000e+00  5.3906999528408051e-02 9.3776002526283264e-02 0.0000000000000000e+00  5.7078000158071518e-02 8.8840000331401825e-02 0.0000000000000000e+00  4.3733999133110046e-02 7.6024003326892853e-02 0.0000000000000000e+00  6.6221997141838074e-02 1.0673800110816956e-01 0.0000000000000000e+00  7.4879996478557587e-02 1.2347699701786041e-01 0.0000000000000000e+00  7.2074003517627716e-02 1.0108199715614319e-01 0.0000000000000000e+00  7.7100001275539398e-02 9.6860997378826141e-02 0.0000000000000000e+00  8.6462996900081635e-02 1.1295299977064133e-01 0.0000000000000000e+00  9.0933002531528473e-02 1.0870900005102158e-01 0.0000000000000000e+00  9.4132997095584869e-02 1.2257400155067444e-01 0.0000000000000000e+00  1.0034699738025665e-01 1.3680000603199005e-01 0.0000000000000000e+00  9.7874000668525696e-02 1.2650300562381744e-01 0.0000000000000000e+00  1.0366000235080719e-01 1.4102800190448761e-01 0.0000000000000000e+00  -1.5057999640703201e-02 5.2100000903010368e-04 0.0000000000000000e+00  -1.5814999118447304e-02 2.6900001103058457e-04 0.0000000000000000e+00  5.2590002305805683e-03 4.8770001158118248e-03 0.0000000000000000e+00  5.8510000817477703e-03 5.2609997801482677e-03 0.0000000000000000e+00  9.9863000214099884e-02 1.2289299815893173e-01 0.0000000000000000e+00  1.3719500601291656e-01 1.5957799553871155e-01 0.0000000000000000e+00  1.3490399718284607e-01 1.6715100407600403e-01 0.0000000000000000e+00  1.4409199357032776e-01 1.6055899858474731e-01 0.0000000000000000e+00  1.2812200188636780e-01 1.6636799275875092e-01 0.0000000000000000e+00  7.0340000092983246e-02 1.2801800668239594e-01 0.0000000000000000e+00  5.1171999424695969e-02 3.5565000027418137e-02 0.0000000000000000e+00  5.7594001293182373e-02 4.0720999240875244e-02 0.0000000000000000e+00  4.1457999497652054e-02 2.9192000627517700e-02 0.0000000000000000e+00  1.6215099394321442e-01 1.1367200314998627e-01 0.0000000000000000e+00  1.6695000231266022e-01 1.1483799666166306e-01 0.0000000000000000e+00  1.6000600159168243e-01 1.0898199677467346e-01 0.0000000000000000e+00  1.6605499386787415e-01 1.1006200313568115e-01 0.0000000000000000e+00  1.7182600498199463e-01 1.1519499868154526e-01 0.0000000000000000e+00  1.6447900235652924e-01 1.0461399704217911e-01 0.0000000000000000e+00  1.5787099301815033e-01 1.0343799740076065e-01 0.0000000000000000e+00  1.6921000182628632e-01 1.1849100142717361e-01 0.0000000000000000e+00  1.1332999914884567e-02 -1.8387999385595322e-02 0.0000000000000000e+00  -1.3531000353395939e-02 -6.8943999707698822e-02 0.0000000000000000e+00  1.1332999914884567e-02 -1.8621999770402908e-02 0.0000000000000000e+00  -1.3922999612987041e-02 -7.8082002699375153e-02 0.0000000000000000e+00  -1.6370000317692757e-02 -7.9388000071048737e-02 0.0000000000000000e+00  -2.0123999565839767e-02 -9.0153001248836517e-02 0.0000000000000000e+00  -1.9695000723004341e-02 -8.2019999623298645e-02 0.0000000000000000e+00  -1.9613999873399734e-02 -9.9096000194549561e-02 0.0000000000000000e+00  -2.4126000702381134e-02 -1.0079599916934967e-01 0.0000000000000000e+00  -2.3685000836849213e-02 -9.1912999749183655e-02 0.0000000000000000e+00  1.0804999619722366e-02 -1.7867999151349068e-02 0.0000000000000000e+00  -4.7518998384475708e-02 -6.7731998860836029e-02 0.0000000000000000e+00  -4.0587000548839569e-02 -5.9184998273849487e-02 0.0000000000000000e+00  -1.3509999960660934e-02 -9.7249997779726982e-03 0.0000000000000000e+00  -9.9600004032254219e-03 -7.2969999164342880e-03 0.0000000000000000e+00  -1.3462999835610390e-02 -1.1448999866843224e-02 0.0000000000000000e+00  -1.0289999656379223e-02 -9.5359999686479568e-03 0.0000000000000000e+00  -1.5335000120103359e-02 -1.4522000215947628e-02 0.0000000000000000e+00  -1.0857000015676022e-02 -1.7300000181421638e-03 0.0000000000000000e+00  -1.4868999831378460e-02 -4.1379998438060284e-03 0.0000000000000000e+00  -1.3197000138461590e-02 -1.6540000215172768e-03 0.0000000000000000e+00  -7.2526000440120697e-02 -9.2937998473644257e-02 0.0000000000000000e+00  -1.0384699702262878e-01 -1.5372799336910248e-01 0.0000000000000000e+00  -1.0736499726772308e-01 -1.5485200285911560e-01 0.0000000000000000e+00  -1.0678199678659439e-01 -1.5142799913883209e-01 0.0000000000000000e+00  -1.0869900137186050e-01 -1.4884300529956818e-01 0.0000000000000000e+00  -1.1011800169944763e-01 -1.5269100666046143e-01 0.0000000000000000e+00  -8.2258999347686768e-02 -1.4314100146293640e-01 0.0000000000000000e+00  -7.7674999833106995e-02 -1.4452800154685974e-01 0.0000000000000000e+00  -8.3544999361038208e-02 -1.5122899413108826e-01 0.0000000000000000e+00  -8.8835999369621277e-02 -1.5636900067329407e-01 0.0000000000000000e+00  -8.4173001348972321e-02 -1.5861299633979797e-01 0.0000000000000000e+00  -6.0123000293970108e-02 -9.3510001897811890e-02 0.0000000000000000e+00  -6.4713001251220703e-02 -1.0468599945306778e-01 0.0000000000000000e+00  -5.7528998702764511e-02 -9.5251001417636871e-02 0.0000000000000000e+00  -5.0298999994993210e-02 -8.6117997765541077e-02 0.0000000000000000e+00  -2.2554999217391014e-02 -8.2690000534057617e-02 0.0000000000000000e+00  -2.0491000264883041e-02 -6.5692998468875885e-02 0.0000000000000000e+00  -2.2986000403761864e-02 -6.5583996474742889e-02 0.0000000000000000e+00  1.1320000048726797e-03 0.0000000000000000e+00 0.0000000000000000e+00  1.5109999803826213e-03 0.0000000000000000e+00 0.0000000000000000e+00  1.6870000399649143e-03 -3.5200000274926424e-04 0.0000000000000000e+00  1.8769999733194709e-03 -7.3099997825920582e-04 0.0000000000000000e+00  1.8279999494552612e-03 9.4300002092495561e-04 0.0000000000000000e+00  1.2047000229358673e-02 8.2179997116327286e-03 0.0000000000000000e+00  1.6622999683022499e-02 1.0898999869823456e-02 0.0000000000000000e+00  7.9610003158450127e-03 5.6019998155534267e-03 0.0000000000000000e+00  3.5899999784305692e-04 0.0000000000000000e+00 0.0000000000000000e+00  -9.9500000942498446e-04 7.5599999399855733e-04 0.0000000000000000e+00  6.2009999528527260e-03 3.6619999445974827e-03 0.0000000000000000e+00  -7.5599999399855733e-04 7.5599999399855733e-04 0.0000000000000000e+00  -1.2400000123307109e-03 7.5599999399855733e-04 0.0000000000000000e+00  1.7223000526428223e-02 1.1292000301182270e-02 0.0000000000000000e+00  2.6652999222278595e-02 1.6081999987363815e-02 0.0000000000000000e+00  3.1794000416994095e-02 1.8589999526739120e-02 0.0000000000000000e+00  2.6511000469326973e-02 1.6040999442338943e-02 0.0000000000000000e+00  3.6522001028060913e-02 3.0265999957919121e-02 0.0000000000000000e+00  3.7101998925209045e-02 2.9004000127315521e-02 0.0000000000000000e+00  3.0395999550819397e-02 2.5174999609589577e-02 0.0000000000000000e+00  3.8846001029014587e-02 1.8619000911712646e-02 0.0000000000000000e+00  5.3544998168945312e-02 2.7406999841332436e-02 0.0000000000000000e+00  5.8750998228788376e-02 3.1073000282049179e-02 0.0000000000000000e+00  5.7296998798847198e-02 3.1270001083612442e-02 0.0000000000000000e+00  5.3481999784708023e-02 2.6404999196529388e-02 0.0000000000000000e+00  4.6532001346349716e-02 2.2215999662876129e-02 0.0000000000000000e+00  6.2949001789093018e-02 3.4384999424219131e-02 0.0000000000000000e+00  6.5877996385097504e-02 3.7241999059915543e-02 0.0000000000000000e+00  6.3293002545833588e-02 3.7202998995780945e-02 0.0000000000000000e+00  7.0059999823570251e-02 7.9952001571655273e-02 0.0000000000000000e+00  6.2408998608589172e-02 6.9254003465175629e-02 0.0000000000000000e+00  6.9453001022338867e-02 8.1726998090744019e-02 0.0000000000000000e+00  9.6827000379562378e-02 1.2483999878168106e-01 0.0000000000000000e+00  9.4581000506877899e-02 1.1868800222873688e-01 0.0000000000000000e+00  1.0172300040721893e-01 1.3485999405384064e-01 0.0000000000000000e+00  1.1056900024414062e-01 2.0581699907779694e-01 0.0000000000000000e+00  1.1310800164937973e-01 2.2138799726963043e-01 0.0000000000000000e+00  1.1057200282812119e-01 2.1425500512123108e-01 0.0000000000000000e+00  -1.5110000036656857e-02 -3.3241998404264450e-02 0.0000000000000000e+00  9.1211996972560883e-02 1.4522899687290192e-01 0.0000000000000000e+00  9.0507000684738159e-02 1.5431000292301178e-01 0.0000000000000000e+00  9.6005000174045563e-02 1.5342900156974792e-01 0.0000000000000000e+00  9.5861002802848816e-02 1.4367200434207916e-01 0.0000000000000000e+00  9.0586997568607330e-02 1.3815000653266907e-01 0.0000000000000000e+00  8.8843002915382385e-02 1.3030099868774414e-01 0.0000000000000000e+00  1.0901000350713730e-01 1.5648800134658813e-01 0.0000000000000000e+00  1.0565099865198135e-01 1.4584800601005554e-01 0.0000000000000000e+00  1.1110699921846390e-01 1.6192799806594849e-01 0.0000000000000000e+00  1.0724599659442902e-01 1.5076300501823425e-01 0.0000000000000000e+00  9.0889997780323029e-02 1.1987300217151642e-01 0.0000000000000000e+00  9.2795997858047485e-02 1.3056699931621552e-01 0.0000000000000000e+00  9.8003000020980835e-02 1.4199599623680115e-01 0.0000000000000000e+00  1.0113800317049026e-01 1.5432900190353394e-01 0.0000000000000000e+00  1.0464199632406235e-01 1.6618299484252930e-01 0.0000000000000000e+00  1.0618499666452408e-01 1.5944600105285645e-01 0.0000000000000000e+00  9.6336998045444489e-02 1.3236899673938751e-01 0.0000000000000000e+00  -6.1425998806953430e-02 5.9581000357866287e-02 0.0000000000000000e+00  -6.7987002432346344e-02 4.6581000089645386e-02 0.0000000000000000e+00  -6.9773003458976746e-02 6.1461001634597778e-02 0.0000000000000000e+00  -4.5995000749826431e-02 1.0153499990701675e-01 0.0000000000000000e+00  -4.9267999827861786e-02 9.0504996478557587e-02 0.0000000000000000e+00  -5.6099001318216324e-02 8.5537999868392944e-02 0.0000000000000000e+00  -5.3474999964237213e-02 7.3149003088474274e-02 0.0000000000000000e+00  -7.1813002228736877e-02 -6.8262003362178802e-02 0.0000000000000000e+00  -6.2348999083042145e-02 -5.5358998477458954e-02 0.0000000000000000e+00  -6.4494997262954712e-02 -5.9050999581813812e-02 0.0000000000000000e+00  -7.6040998101234436e-02 -7.2315998375415802e-02 0.0000000000000000e+00  -9.7889997065067291e-02 -9.8684996366500854e-02 0.0000000000000000e+00  -1.2426099926233292e-01 -1.1370100080966949e-01 0.0000000000000000e+00  -1.2364999949932098e-01 -1.1848600208759308e-01 0.0000000000000000e+00  -1.3126400113105774e-01 -1.1956000328063965e-01 0.0000000000000000e+00  -8.33050012588