<?xml version="1.0"?>
<VTKFile type="UnstructuredGrid"  version="0.1"  >
<UnstructuredGrid>
<Piece  NumberOfPoints="6340" NumberOfCells="12376">
<Points>
<DataArray  type="Float64"  NumberOfComponents="3"  format="ascii">-0.01943599991500378 0.02077200077474117 0  -0.02007400058209896 0.02141799964010715 0  -0.02030999958515167 0.02043999917805195 0  -0.02081600017845631 0.02116400003433228 0  -0.01967299915850163 0.01985500007867813 0  -0.01926800049841404 0.02164500020444393 0  -0.01972699910402298 0.02236999943852425 0  -0.01926900073885918 0.02318600006401539 0  -0.02015299908816814 0.02309799939393997 0  -0.01881599985063076 0.02236899919807911 0  -0.009061999619007111 0.01767599955201149 0  -0.00965999998152256 0.01858199946582317 0  -0.009995000436902046 0.0176439993083477 0  -0.01059900037944317 0.01859099976718426 0  -0.02460400015115738 0.0736519992351532 0  -0.02550400048494339 0.07401499897241592 0  -0.02566500008106232 0.07324399799108505 0  -0.02511500008404255 0.06723800301551819 0  -0.02571200020611286 0.06791000068187714 0  -0.02590600028634071 0.06702399998903275 0  -0.0266100000590086 0.06740999966859818 0  -0.01230399962514639 0.08555500209331512 0  -0.0131630003452301 0.08539599925279617 0  -0.01259199995547533 0.08477000147104263 0  -0.01895700022578239 0.0797249972820282 0  -0.01801400072872639 0.079926997423172 0  -0.01851999945938587 0.08058899641036987 0  -0.01845799945294857 0.07905799895524979 0  -0.02172599919140339 0.02447899989783764 0  -0.02089500054717064 0.02462299913167953 0  -0.0212399996817112 0.02536400035023689 0  -0.02154600061476231 0.02611400000751019 0  -0.02208700031042099 0.02522899955511093 0  -0.02040099911391735 0.02551300078630447 0  -0.02004699967801571 0.02472300082445145 0  -0.01918799988925457 0.02480800077319145 0  -0.01955500058829784 0.02559899911284447 0  -0.0213760007172823 0.02371899969875813 0  -0.0222839992493391 0.02362100034952164 0  -0.02174999937415123 0.02250000089406967 0  -0.02129600010812283 0.02185099944472313 0  -0.02100900001823902 0.02292300015687943 0  -0.02054000087082386 0.02217799983918667 0  -0.01630000025033951 0.02205800078809261 0  -0.01679999940097332 0.02118300087749958 0  -0.01586800068616867 0.02115299925208092 0  -0.01716299913823605 0.02218200080096722 0  -0.01803299970924854 0.02218399941921234 0  -0.0175550002604723 0.02306400053203106 0  0.04178399965167046 0.0780780017375946 0  0.04141499847173691 0.07726199924945831 0  0.0427049994468689 0.07738500088453293 0  0.04506599903106689 0.08789200335741043 0  0.0458579994738102 0.08814200013875961 0  0.04474800080060959 0.08865299820899963 0  0.02687700092792511 0.09686899930238724 0  0.02705400064587593 0.09608700126409531 0  0.02796999923884869 0.0963670015335083 0  0.02587199956178665 0.09733100235462189 0  0.02604199945926666 0.09638600051403046 0  -0.006849000230431557 0.09377600252628326 0  -0.005954000167548656 0.09397599846124649 0  -0.006539000198245049 0.09459000080823898 0  -0.005636999849230051 0.09479299932718277 0  -0.01787200011312962 0.09308599680662155 0  -0.01819300092756748 0.0924220010638237 0  -0.01719100028276443 0.09266600012779236 0  -0.01878399960696697 0.09311799705028534 0  -0.01452200021594763 0.09883099794387817 0  -0.01477300003170967 0.09957200288772583 0  -0.01530400011688471 0.09884200245141983 0  -0.0106039997190237 0.09232000261545181 0  -0.009739999659359455 0.09247499704360962 0  -0.01032300014048815 0.09309499710798264 0  -0.01147000025957823 0.09217000007629395 0  -0.01088699977844954 0.09155099838972092 0  -0.01175200007855892 0.09140200167894363 0  -0.01408100035041571 0.09383600205183029 0  -0.01462499983608723 0.09443199634552002 0  -0.01498000044375658 0.09367000311613083 0  -0.01292399968951941 0.09263200312852859 0  -0.01380600035190582 0.0924839973449707 0  -0.01321200001984835 0.09187299758195877 0  0.01200699992477894 0.09069500118494034 0  0.0130639998242259 0.09058400243520737 0  0.01245000027120113 0.09133999794721603 0  0.007833000272512436 0.07798600196838379 0  0.008280999958515167 0.07719399780035019 0  0.008888999931514263 0.07787500321865082 0  -0.008820000104606152 0.01675999909639359 0  -0.008062999695539474 0.01691900007426739 0  -0.009628999978303909 0.01669299975037575 0  -0.01047299988567829 0.0166229996830225 0  -0.01386000029742718 0.01676999963819981 0  -0.01405700016766787 0.01788399927318096 0  -0.0146500002592802 0.01700600050389767 0  -0.01330399978905916 0.01765399985015392 0  -0.01329400017857552 0.01870400086045265 0  -0.01253699976950884 0.01778700016438961 0  -0.01276400033384562 0.02165699936449528 0  -0.01324400026351213 0.02070900052785873 0  -0.01237399969249964 0.02070299908518791 0  -0.01197099965065718 0.01980200037360191 0  -0.01143200043588877 0.0206300001591444 0  -0.01285499986261129 0.01971499994397163 0  -0.01363999955356121 0.02171799913048744 0  -0.01498799957334995 0.0209989994764328 0  -0.01539599988609552 0.02198499999940395 0  -0.01451800018548965 0.02184800058603287 0  -0.01009299978613853 0.01952500082552433 0  -0.01143100019544363 0.0307449996471405 0  -0.01192899979650974 0.02988599985837936 0  -0.01101300027221441 0.02978499978780746 0  -0.006403000093996525 0.02917799912393093 0  -0.006829000078141689 0.03016100078821182 0  -0.007325999904423952 0.02931099943816662 0  -0.009194999933242798 0.01953100040555 0  -0.006924000103026628 0.01878499984741211 0  -0.007826999761164188 0.01869699917733669 0  -0.007141000125557184 0.01793500036001205 0  -0.00724499998614192 0.01709000021219254 0  -0.006339999847114086 0.01727999933063984 0  0.04701000079512596 0.08440099656581879 0  0.04773300141096115 0.08391200006008148 0  0.04771199822425842 0.08491799980401993 0  0.04667799919843674 0.08512300252914429 0  0.01478699967265129 0.05785499885678291 0  0.01576199941337109 0.05764799937605858 0  0.01535800006240606 0.05857999995350838 0  0.02695100009441376 0.04158600047230721 0  0.02734199911355972 0.04050499945878983 0  0.02783899940550327 0.04115400090813637 0  0.02930800057947636 0.0454070009291172 0  0.0301510002464056 0.04464000090956688 0  0.03054600022733212 0.04532999917864799 0  0.02933100052177906 0.04882699996232986 0  0.02840300090610981 0.04900899901986122 0  0.0288539994508028 0.04802900180220604 0  0.02835999988019466 0.04727799817919731 0  0.02934600040316582 0.04704900085926056 0  0.02789399959146976 0.04824500158429146 0  0.02745199948549271 0.04921299964189529 0  0.02735799923539162 0.04752400144934654 0  0.02677099965512753 0.04684000089764595 0  0.02635399997234344 0.0477599985897541 0  0.02575699985027313 0.04707099869847298 0  0.04445299878716469 0.08661200106143951 0  0.04335800185799599 0.08672799915075302 0  0.04398399963974953 0.08598300069570541 0  0.04291199892759323 0.08607099950313568 0  0.005793999880552292 0.02289599925279617 0  0.006508000195026398 0.02334300056099892 0  0.005840000230818987 0.02399500086903572 0  0.00661400007084012 0.02433099970221519 0  0.02535000070929527 0.04799199849367142 0  0.02155099995434284 0.05050399899482727 0  0.02114599943161011 0.05143100023269653 0  0.02055899985134602 0.0507190003991127 0  0.02213600091636181 0.05121500045061111 0  0.02798900008201599 0.04997599869966507 0  0.01635400019586086 0.03396999835968018 0  0.0155220003798604 0.03385800123214722 0  0.01587799936532974 0.03293099999427795 0  0.01142300013452768 0.03951000049710274 0  0.01054699998348951 0.03952699899673462 0  0.010945999994874 0.0386039987206459 0  0.01006899960339069 0.03862199932336807 0  0.009669999592006207 0.0395440012216568 0  0.009589999914169312 0.03771600127220154 0  0.01046899985522032 0.03770000115036964 0  0.0110240001231432 0.04043399915099144 0  -0.02649500034749508 0.06825599819421768 0  -0.02544100023806095 0.06873500347137451 0  -0.02638999931514263 0.06903000175952911 0  -0.02478699944913387 0.06814000010490417 0  -0.02442000061273575 0.06898300349712372 0  -0.02342999912798405 0.06922800093889236 0  -0.02389200031757355 0.06988699734210968 0  -0.02287299931049347 0.06859300285577774 0  -0.0224590003490448 0.06945700198411942 0  -0.02295799925923347 0.07011000066995621 0  -0.02669399976730347 0.06653399765491486 0  -0.01808900013566017 0.0814410001039505 0  -0.01902199909090996 0.08124800026416779 0  -0.01803199946880341 0.08959099650382996 0  -0.01889999955892563 0.08946999907493591 0  -0.01832200028002262 0.08884000033140182 0  -0.0191859994083643 0.08872299641370773 0  -0.01861000061035156 0.08808200061321259 0  -0.01729599945247173 0.09195400029420853 0  -0.0164599996060133 0.09208399802446365 0  -0.01625600084662437 0.09281200170516968 0  -0.01345600001513958 0.0846019983291626 0  -0.01086900010704994 0.07914099842309952 0  -0.009929999709129333 0.07934200018644333 0  -0.01044800039380789 0.07999599725008011 0  -0.01007100008428097 0.08082900196313858 0  -0.009535999968647957 0.08018500357866287 0  -0.01463999971747398 0.0767500028014183 0  -0.01511500030755997 0.07585500180721283 0  -0.01416399981826544 0.0760670006275177 0  -0.01321399956941605 0.0762770026922226 0  -0.01367999985814095 0.07538499683141708 0  -0.01751199923455715 0.07926200330257416 0  -0.0170269999653101 0.07858599722385406 0  -0.01797899976372719 0.07837700098752975 0  -0.01893199980258942 0.07817000150680542 0  -0.02348800003528595 0.07076600193977356 0  -0.0240119993686676 0.07300599664449692 0  -0.02360899932682514 0.07387399673461914 0  -0.02256599999964237 0.02421499975025654 0  -0.02284000068902969 0.02479000017046928 0  -0.02302400022745132 0.0253519993275404 0  -0.02322199940681458 0.02595599927008152 0  -0.02236000075936317 0.02601199969649315 0  -0.01967000029981136 0.02394899912178516 0  -0.01880300045013428 0.0240240003913641 0  -0.02054099924862385 0.02384299971163273 0  -0.02200900018215179 0.02304399944841862 0  -0.01776699908077717 0.01834399998188019 0  -0.01739300042390823 0.01910500042140484 0  -0.01845999993383884 0.01874000020325184 0  -0.01705599948763847 0.01793899945914745 0  -0.01838099956512451 0.02316999994218349 0  -0.01669000
[...]
<PointData  Vectors="velocity"> 
<DataArray  type="Float64"  Name="velocity"  NumberOfComponents="3" format="ascii">5.0180000253021717e-03 -1.0299999848939478e-04 0.0000000000000000e+00  4.5830002054572105e-03 9.6999996458180249e-05 0.0000000000000000e+00  1.5109999803826213e-03 3.0219999607652426e-03 0.0000000000000000e+00  2.0419999491423368e-03 2.4910001084208488e-03 0.0000000000000000e+00  4.7100000665523112e-04 3.0219999607652426e-03 0.0000000000000000e+00  8.4180003032088280e-03 1.2590000405907631e-03 0.0000000000000000e+00  8.7200002744793892e-03 1.8799999961629510e-03 0.0000000000000000e+00  1.2745000422000885e-02 3.3370000310242176e-03 0.0000000000000000e+00  8.9349998161196709e-03 2.4389999452978373e-03 0.0000000000000000e+00  1.2476000003516674e-02 2.5559999048709869e-03 0.0000000000000000e+00  1.7782000824809074e-02 -1.1816999875009060e-02 0.0000000000000000e+00  1.3108000159263611e-02 -1.4220000244677067e-02 0.0000000000000000e+00  1.9315000623464584e-02 -1.0987999849021435e-02 0.0000000000000000e+00  1.5734000131487846e-02 -1.2773999944329262e-02 0.0000000000000000e+00  -2.0284000784158707e-02 -7.4977003037929535e-02 0.0000000000000000e+00  1.1820999905467033e-02 -2.6443000882863998e-02 0.0000000000000000e+00  1.1587000451982021e-02 -2.6443000882863998e-02 0.0000000000000000e+00  -1.2109000235795975e-02 -8.9643001556396484e-02 0.0000000000000000e+00  -1.2674000114202499e-02 -8.1348001956939697e-02 0.0000000000000000e+00  -1.1513999663293362e-02 -8.0794997513294220e-02 0.0000000000000000e+00  1.2844000011682510e-02 -2.4175999686121941e-02 0.0000000000000000e+00  -8.7982997298240662e-02 -1.2442699819803238e-01 0.0000000000000000e+00  -8.2140997052192688e-02 -1.2006700038909912e-01 0.0000000000000000e+00  -8.3654999732971191e-02 -1.2750799953937531e-01 0.0000000000000000e+00  -4.2187999933958054e-02 -1.0363899916410446e-01 0.0000000000000000e+00  -4.6640001237392426e-02 -1.1158700287342072e-01 0.0000000000000000e+00  -4.4495001435279846e-02 -1.0359799861907959e-01 0.0000000000000000e+00  -4.4484000653028488e-02 -1.1163900047540665e-01 0.0000000000000000e+00  3.6959999706596136e-03 5.6000000768108293e-05 0.0000000000000000e+00  6.8009998649358749e-03 1.3180000241845846e-03 0.0000000000000000e+00  6.4199999906122684e-03 1.4410000294446945e-03 0.0000000000000000e+00  6.0220002196729183e-03 1.5490000369027257e-03 0.0000000000000000e+00  3.7579999770969152e-03 4.4000000343658030e-04 0.0000000000000000e+00  9.4269998371601105e-03 2.4200000334531069e-03 0.0000000000000000e+00  1.0850000195205212e-02 2.9599999543279409e-03 0.0000000000000000e+00  1.5549999661743641e-02 4.6999999321997166e-03 0.0000000000000000e+00  1.2965999543666840e-02 3.5039999056607485e-03 0.0000000000000000e+00  4.0420000441372395e-03 1.4499999815598130e-04 0.0000000000000000e+00  4.1319997981190681e-03 3.0999999580672011e-05 0.0000000000000000e+00  3.0219999607652426e-03 1.5109999803826213e-03 0.0000000000000000e+00  2.5460000615566969e-03 1.9869999960064888e-03 0.0000000000000000e+00  5.1159998401999474e-03 1.0059999767690897e-03 0.0000000000000000e+00  5.0269998610019684e-03 6.5699999686330557e-04 0.0000000000000000e+00  2.1299999207258224e-02 1.7750000115483999e-03 0.0000000000000000e+00  1.6690999269485474e-02 7.4500002665445209e-04 0.0000000000000000e+00  1.9489999860525131e-02 -2.8099998598918319e-04 0.0000000000000000e+00  1.8636999651789665e-02 2.4729999713599682e-03 0.0000000000000000e+00  1.5194999985396862e-02 2.5750000495463610e-03 0.0000000000000000e+00  1.9510999321937561e-02 3.7700000684708357e-03 0.0000000000000000e+00  6.7763999104499817e-02 9.7869001328945160e-02 0.0000000000000000e+00  6.5787002444267273e-02 1.0028500109910965e-01 0.0000000000000000e+00  -1.0816999711096287e-02 -3.4237999469041824e-02 0.0000000000000000e+00  7.5089000165462494e-02 9.7776003181934357e-02 0.0000000000000000e+00  7.0261999964714050e-02 8.8742002844810486e-02 0.0000000000000000e+00  7.5653001666069031e-02 1.0345300287008286e-01 0.0000000000000000e+00  -6.0469999909400940e-02 1.1441799998283386e-01 0.0000000000000000e+00  -5.3766001015901566e-02 1.2676399946212769e-01 0.0000000000000000e+00  -4.8062998801469803e-02 1.2513099610805511e-01 0.0000000000000000e+00  -7.1277998387813568e-02 1.0418699681758881e-01 0.0000000000000000e+00  -6.5150998532772064e-02 1.1921299993991852e-01 0.0000000000000000e+00  -1.0625500231981277e-01 -9.3140996992588043e-02 0.0000000000000000e+00  -1.1257400363683701e-01 -9.6317000687122345e-02 0.0000000000000000e+00  -1.0324300080537796e-01 -8.8082000613212585e-02 0.0000000000000000e+00  -1.0922600328922272e-01 -9.0689003467559814e-02 0.0000000000000000e+00  -2.3345999419689178e-02 -2.5988999754190445e-02 0.0000000000000000e+00  -2.3594999685883522e-02 -2.8313999995589256e-02 0.0000000000000000e+00  -2.8427999466657639e-02 -3.0930999666452408e-02 0.0000000000000000e+00  1.2070000171661377e-02 -3.5773001611232758e-02 0.0000000000000000e+00  -1.6210999339818954e-02 -1.3055000454187393e-02 0.0000000000000000e+00  2.1649999544024467e-03 -4.1838999837636948e-02 0.0000000000000000e+00  3.7809999193996191e-03 -4.1299998760223389e-02 0.0000000000000000e+00  -8.2658998668193817e-02 -7.9420998692512512e-02 0.0000000000000000e+00  -8.9229002594947815e-02 -8.4674000740051270e-02 0.0000000000000000e+00  -8.0288000404834747e-02 -7.4568003416061401e-02 0.0000000000000000e+00  -7.5783997774124146e-02 -7.3977001011371613e-02 0.0000000000000000e+00  -8.9768998324871063e-02 -8.4876000881195068e-02 0.0000000000000000e+00  -8.2754999399185181e-02 -7.9423002898693085e-02 0.0000000000000000e+00  -4.4663999229669571e-02 -4.0649000555276871e-02 0.0000000000000000e+00  -3.3112999051809311e-02 -3.2464001327753067e-02 0.0000000000000000e+00  -3.8844000548124313e-02 -3.5960000008344650e-02 0.0000000000000000e+00  -6.0224000364542007e-02 -5.8281000703573227e-02 0.0000000000000000e+00  -5.3621001541614532e-02 -5.3165998309850693e-02 0.0000000000000000e+00  -6.2065001577138901e-02 -6.2899999320507050e-02 0.0000000000000000e+00  -8.9261002838611603e-02 7.7188000082969666e-02 0.0000000000000000e+00  -8.0624997615814209e-02 9.3105003237724304e-02 0.0000000000000000e+00  -1.0095900297164917e-01 7.9058997333049774e-02 0.0000000000000000e+00  3.4403998404741287e-02 1.1731699854135513e-01 0.0000000000000000e+00  3.6858998239040375e-02 1.2760399281978607e-01 0.0000000000000000e+00  4.2762998491525650e-02 1.3029399514198303e-01 0.0000000000000000e+00  -3.7779998965561390e-03 7.5599999399855733e-04 0.0000000000000000e+00  -3.7779998965561390e-03 9.8600005730986595e-04 0.0000000000000000e+00  -3.7779998965561390e-03 9.9700002465397120e-04 0.0000000000000000e+00  -3.7779998965561390e-03 1.2489999644458294e-03 0.0000000000000000e+00  -3.7779998965561390e-03 2.2670000325888395e-03 0.0000000000000000e+00  1.3710999861359596e-02 -6.1679999344050884e-03 0.0000000000000000e+00  -3.5300001036375761e-03 2.5140000507235527e-03 0.0000000000000000e+00  1.6130000352859497e-02 -6.7719998769462109e-03 0.0000000000000000e+00  1.5828000381588936e-02 -8.6789997294545174e-03 0.0000000000000000e+00  1.7596000805497169e-02 -8.3990003913640976e-03 0.0000000000000000e+00  2.5945000350475311e-02 -3.7640000227838755e-03 0.0000000000000000e+00  2.1578999236226082e-02 -5.8670002035796642e-03 0.0000000000000000e+00  2.1764999255537987e-02 -7.2139999829232693e-03 0.0000000000000000e+00  1.8340000882744789e-02 -9.9820001050829887e-03 0.0000000000000000e+00  2.0917000249028206e-02 -8.7430002167820930e-03 0.0000000000000000e+00  1.8335999920964241e-02 -8.6780004203319550e-03 0.0000000000000000e+00  2.5969000533223152e-02 -2.1319999359548092e-03 0.0000000000000000e+00  2.1050000563263893e-02 -1.8579999450594187e-03 0.0000000000000000e+00  2.3714000359177589e-02 7.7099999180063605e-04 0.0000000000000000e+00  2.5226999074220657e-02 -5.7799997739493847e-04 0.0000000000000000e+00  1.4836000278592110e-02 -1.2955999933183193e-02 0.0000000000000000e+00  5.0659999251365662e-02 1.1986999772489071e-02 0.0000000000000000e+00  4.7214999794960022e-02 1.2587999925017357e-02 0.0000000000000000e+00  5.3544998168945312e-02 1.4565999619662762e-02 0.0000000000000000e+00  7.9586997628211975e-02 2.1462000906467438e-02 0.0000000000000000e+00  8.4651000797748566e-02 2.1197000518441200e-02 0.0000000000000000e+00  7.5443997979164124e-02 2.0950000733137131e-02 0.0000000000000000e+00  1.1876000091433525e-02 -1.3973999768495560e-02 0.0000000000000000e+00  -3.9260000921785831e-03 -1.7971999943256378e-02 0.0000000000000000e+00  2.8899998869746923e-03 -1.6945000737905502e-02 0.0000000000000000e+00  2.5279999244958162e-03 -1.6476999968290329e-02 0.0000000000000000e+00  -3.7779998965561390e-03 1.2349999742582440e-03 0.0000000000000000e+00  -3.7779998965561390e-03 1.5109999803826213e-03 0.0000000000000000e+00  5.7114001363515854e-02 5.8455999940633774e-02 0.0000000000000000e+00  5.0409000366926193e-02 4.7260001301765442e-02 0.0000000000000000e+00  5.4196000099182129e-02 5.3374998271465302e-02 0.0000000000000000e+00  6.1843998730182648e-02 6.6523000597953796e-02 0.0000000000000000e+00  1.0793899744749069e-01 1.6528600454330444e-01 0.0000000000000000e+00  1.0883700102567673e-01 1.7208500206470490e-01 0.0000000000000000e+00  9.0479999780654907e-02 1.7391799390316010e-01 0.0000000000000000e+00  3.0337000265717506e-02 3.1713001430034637e-02 0.0000000000000000e+00  -2.2464999929070473e-02 -1.1888000182807446e-02 0.0000000000000000e+00  -2.2956000640988350e-02 -1.2378999963402748e-02 0.0000000000000000e+00  3.6370001733303070e-02 5.2489999681711197e-02 0.0000000000000000e+00  -2.3421000689268112e-02 -1.6432000324130058e-02 0.0000000000000000e+00  -2.3421000689268112e-02 -1.7617000266909599e-02 0.0000000000000000e+00  5.7695999741554260e-02 9.4990000128746033e-02 0.0000000000000000e+00  7.0124998688697815e-02 1.0836300253868103e-01 0.0000000000000000e+00  5.9470001608133316e-02 9.0516000986099243e-02 0.0000000000000000e+00  6.1269998550415039e-02 8.6607001721858978e-02 0.0000000000000000e+00  4.7182999551296234e-02 7.1920000016689301e-02 0.0000000000000000e+00  7.2894997894763947e-02 1.0448300093412399e-01 0.0000000000000000e+00  8.2607999444007874e-02 1.2152100354433060e-01 0.0000000000000000e+00  7.5791001319885254e-02 1.0115899890661240e-01 0.0000000000000000e+00  7.9038999974727631e-02 9.8800003528594971e-02 0.0000000000000000e+00  8.9721001684665680e-02 1.1463899910449982e-01 0.0000000000000000e+00  9.3142002820968628e-02 1.1210899800062180e-01 0.0000000000000000e+00  7.8647002577781677e-02 1.0185600072145462e-01 0.0000000000000000e+00  8.4480002522468567e-02 1.1717099696397781e-01 0.0000000000000000e+00  8.0972999334335327e-02 1.0601799935102463e-01 0.0000000000000000e+00  8.6681000888347626e-02 1.2155999988317490e-01 0.0000000000000000e+00  -1.0289999656379223e-02 -7.5599999399855733e-04 0.0000000000000000e+00  -1.0795000009238720e-02 -7.5599999399855733e-04 0.0000000000000000e+00  -8.5249999538064003e-03 -6.1249998398125172e-03 0.0000000000000000e+00  -7.9269995912909508e-03 -5.6130001321434975e-03 0.0000000000000000e+00  1.0258600115776062e-01 1.2675699591636658e-01 0.0000000000000000e+00  1.3665699958801270e-01 1.6500100493431091e-01 0.0000000000000000e+00  1.3652700185775757e-01 1.7006599903106689e-01 0.0000000000000000e+00  1.4136900007724762e-01 1.6632699966430664e-01 0.0000000000000000e+00  1.3167700171470642e-01 1.6858200728893280e-01 0.0000000000000000e+00  7.8717999160289764e-02 1.2527599930763245e-01 0.0000000000000000e+00  5.1628001034259796e-02 3.6047998815774918e-02 0.0000000000000000e+00  5.9365000575780869e-02 4.0826998651027679e-02 0.0000000000000000e+00  3.9409000426530838e-02 2.7766000479459763e-02 0.0000000000000000e+00  1.7952300608158112e-01 1.1419100314378738e-01 0.0000000000000000e+00  1.8580999970436096e-01 1.1333899945020676e-01 0.0000000000000000e+00  1.7838400602340698e-01 1.0684499889612198e-01 0.0000000000000000e+00  1.8511000275611877e-01 1.0622999817132950e-01 0.0000000000000000e+00  1.9179500639438629e-01 1.1200000345706940e-01 0.0000000000000000e+00  1.8243999779224396e-01 9.8531998693943024e-02 0.0000000000000000e+00  1.7480799555778503e-01 9.9096000194549561e-02 0.0000000000000000e+00  1.8497399985790253e-01 1.1963599920272827e-01 0.0000000000000000e+00  1.2587999925017357e-02 -2.4431999772787094e-02 0.0000000000000000e+00  -1.3884999789297581e-02 -8.2432001829147339e-02 0.0000000000000000e+00  1.2353999540209770e-02 -2.4666000157594681e-02 0.0000000000000000e+00  -1.4092000201344490e-02 -9.1480001807212830e-02 0.0000000000000000e+00  -1.6109000891447067e-02 -9.3461997807025909e-02 0.0000000000000000e+00  -1.9261000677943230e-02 -1.0465899854898453e-01 0.0000000000000000e+00  -1.9414000213146210e-02 -9.6977002918720245e-02 0.0000000000000000e+00  -1.9426999613642693e-02 -1.1365000158548355e-01 0.0000000000000000e+00  -2.2973999381065369e-02 -1.1562699824571609e-01 0.0000000000000000e+00  -2.2765999659895897e-02 -1.0718999803066254e-01 0.0000000000000000e+00  1.3371000066399574e-02 -2.3648999631404877e-02 0.0000000000000000e+00  -4.5889999717473984e-02 -1.0308600217103958e-01 0.0000000000000000e+00  -4.1023001074790955e-02 -9.5173999667167664e-02 0.0000000000000000e+00  -3.7009999155998230e-02 -4.8021998256444931e-02 0.0000000000000000e+00  -3.1346999108791351e-02 -4.3345000594854355e-02 0.0000000000000000e+00  -3.6290001124143600e-02 -5.1226001232862473e-02 0.0000000000000000e+00  -3.1016999855637550e-02 -4.6596001833677292e-02 0.0000000000000000e+00  -3.5367999225854874e-02 -5.4528001695871353e-02 0.0000000000000000e+00  -2.9656000435352325e-02 -3.4908000379800797e-02 0.0000000000000000e+00  -3.4848000854253769e-02 -3.8706000894308090e-02 0.0000000000000000e+00  -3.4173998981714249e-02 -3.5096999257802963e-02 0.0000000000000000e+00  -7.8120000660419464e-02 -1.2346900254487991e-01 0.0000000000000000e+00  -7.2783000767230988e-02 -1.5138599276542664e-01 0.0000000000000000e+00  -7.3859997093677521e-02 -1.4794699847698212e-01 0.0000000000000000e+00  -7.3899999260902405e-02 -1.4854499697685242e-01 0.0000000000000000e+00  -7.5772002339363098e-02 -1.4630700647830963e-01 0.0000000000000000e+00  -7.5037002563476562e-02 -1.4579500257968903e-01 0.0000000000000000e+00  -6.3005998730659485e-02 -1.5113499760627747e-01 0.0000000000000000e+00  -6.2912002205848694e-02 -1.5257099270820618e-01 0.0000000000000000e+00  -6.6031999886035919e-02 -1.5631200373172760e-01 0.0000000000000000e+00  -6.8224996328353882e-02 -1.5772700309753418e-01 0.0000000000000000e+00  -6.7895002663135529e-02 -1.6037100553512573e-01 0.0000000000000000e+00  -4.8762999475002289e-02 -1.1931899935007095e-01 0.0000000000000000e+00  -5.2923999726772308e-02 -1.2713700532913208e-01 0.0000000000000000e+00  -4.8709999769926071e-02 -1.1973799765110016e-01 0.0000000000000000e+00  -4.4272001832723618e-02 -1.1170600354671478e-01 0.0000000000000000e+00  -2.2001000121235847e-02 -9.8424002528190613e-02 0.0000000000000000e+00  -2.2979000583291054e-02 -8.3917997777462006e-02 0.0000000000000000e+00  -2.4143999442458153e-02 -8.4339998662471771e-02 0.0000000000000000e+00  4.7200000844895840e-03 -7.5200002174824476e-04 0.0000000000000000e+00  5.2889999933540821e-03 -1.5109999803826213e-03 0.0000000000000000e+00  5.6409998796880245e-03 -2.0389999262988567e-03 0.0000000000000000e+00  6.0200002044439316e-03 -2.6080000679939985e-03 0.0000000000000000e+00  3.3440000843256712e-03 3.5600000410340726e-04 0.0000000000000000e+00  1.2645999900996685e-02 3.8389998953789473e-03 0.0000000000000000e+00  1.6410000622272491e-02 4.5770001597702503e-03 0.0000000000000000e+00  8.5540004074573517e-03 2.4619998876005411e-03 0.0000000000000000e+00  3.5600000992417336e-03 7.9299998469650745e-04 0.0000000000000000e+00  -1.9890000112354755e-03 3.0219999607652426e-03 0.0000000000000000e+00  7.1319998241961002e-03 -1.0059999767690897e-03 0.0000000000000000e+00  -1.5109999803826213e-03 3.0219999607652426e-03 0.0000000000000000e+00  -2.4800000246614218e-03 3.0219999607652426e-03 0.0000000000000000e+00  1.6385000199079514e-02 3.7620000075548887e-03 0.0000000000000000e+00  2.2851999849081039e-02 3.6200000904500484e-03 0.0000000000000000e+00  2.6688000187277794e-02 4.8250001855194569e-03 0.0000000000000000e+00  2.3353999480605125e-02 4.9259997904300690e-03 0.0000000000000000e+00  4.4401999562978745e-02 1.0184999555349350e-02 0.0000000000000000e+00  4.8691999167203903e-02 8.6669996380805969e-03 0.0000000000000000e+00  4.1749998927116394e-02 6.7929998040199280e-03 0.0000000000000000e+00  2.5506999343633652e-02 -5.2020000293850899e-03 0.0000000000000000e+00  3.5224001854658127e-02 9.1200001770630479e-04 0.0000000000000000e+00  4.0199000388383865e-02 4.2559998109936714e-03 0.0000000000000000e+00  4.0267001837491989e-02 4.8190001398324966e-03 0.0000000000000000e+00  3.4015998244285583e-02 3.5000000934815034e-05 0.0000000000000000e+00  2.8921000659465790e-02 -3.4650000743567944e-03 0.0000000000000000e+00  4.5297998934984207e-02 7.7479998581111431e-03 0.0000000000000000e+00  5.0402998924255371e-02 1.1257000267505646e-02 0.0000000000000000e+00  4.9469999969005585e-02 1.0990000329911709e-02 0.0000000000000000e+00  5.7234000414609909e-02 5.9227999299764633e-02 0.0000000000000000e+00  5.1073998212814331e-02 4.9554001539945602e-02 0.0000000000000000e+00  5.7822998613119125e-02 6.1797000467777252e-02 0.0000000000000000e+00  7.9747997224330902e-02 1.0511600226163864e-01 0.0000000000000000e+00  7.7237002551555634e-02 9.8259001970291138e-02 0.0000000000000000e+00  8.3894997835159302e-02 1.1502499878406525e-01 0.0000000000000000e+00  1.0274700075387955e-01 1.8616400659084320e-01 0.0000000000000000e+00  1.0591500252485275e-01 2.0119300484657288e-01 0.0000000000000000e+00  1.0299400240182877e-01 1.9494199752807617e-01 0.0000000000000000e+00  -1.0576999746263027e-02 -3.3998001366853714e-02 0.0000000000000000e+00  8.0379001796245575e-02 1.2949000298976898e-01 0.0000000000000000e+00  7.9461000859737396e-02 1.4012199640274048e-01 0.0000000000000000e+00  8.3674997091293335e-02 1.3743500411510468e-01 0.0000000000000000e+00  8.2836002111434937e-02 1.2561599910259247e-01 0.0000000000000000e+00  7.9092003405094147e-02 1.2087900191545486e-01 0.0000000000000000e+00  7.7480003237724304e-02 1.1234900355339050e-01 0.0000000000000000e+00  9.1525003314018250e-02 1.3765400648117065e-01 0.0000000000000000e+00  8.8276997208595276e-02 1.2649199366569519e-01 0.0000000000000000e+00  9.2793002724647522e-02 1.4336299896240234e-01 0.0000000000000000e+00  8.9555002748966217e-02 1.3156999647617340e-01 0.0000000000000000e+00  7.6877996325492859e-02 9.9247001111507416e-02 0.0000000000000000e+00  7.9929001629352570e-02 1.1140199750661850e-01 0.0000000000000000e+00  8.4039002656936646e-02 1.2309200316667557e-01 0.0000000000000000e+00  8.7355002760887146e-02 1.3707500696182251e-01 0.0000000000000000e+00  8.9431002736091614e-02 1.4992199838161469e-01 0.0000000000000000e+00  9.0511001646518707e-02 1.4214900135993958e-01 0.0000000000000000e+00  8.2001999020576477e-02 1.1261799931526184e-01 0.0000000000000000e+00  -9.0971998870372772e-02 8.3012998104095459e-02 0.0000000000000000e+00  -9.8508000373840332e-02 7.3452003300189972e-02 0.0000000000000000e+00  -1.0018999874591827e-01 8.5251003503799438e-02 0.0000000000000000e+00  -7.3344998061656952e-02 1.1686500161886215e-01 0.0000000000000000e+00  -7.6407998800277710e-02 1.0754399746656418e-01 0.0000000000000000e+00  -8.4444001317024231e-02 1.0390499979257584e-01 0.0000000000000000e+00  -8.1524997949600220e-02 9.3566998839378357e-02 0.0000000000000000e+00  -9.3584001064300537e-02 -8.5005000233650208e-02 0.0000000000000000e+00  -8.4535002708435059e-02 -7.5134001672267914e-02 0.0000000000000000e+00  -8.6912997066974640e-02 -7.9897001385688782e-02 0.0000000000000000e+00  -9.5776997506618500e-02 -8.9745998382568359e-02 0.0000000000000000e+00  -1.1423700302839279e-01 -1.0154999792575836e-01 0.0000000000000000e+00  -1.3276399672031403e-01 -8.9473001658916473e-02 0.0000000000000000e+00  -1.3786700367927551e-01 -9.7171999514102936e-02 0.0000000000000000e+00  -1.4238500595092773e-01 -9.1458998620510101e-02 0