<?xml version="1.0"?>
<VTKFile type="UnstructuredGrid"  version="0.1"  >
<UnstructuredGrid>
<Piece  NumberOfPoints="6340" NumberOfCells="12376">
<Points>
<DataArray  type="Float64"  NumberOfComponents="3"  format="ascii">-0.01941199973225594 0.02071999944746494 0  -0.02006999962031841 0.02136999927461147 0  -0.0203000009059906 0.02039000019431114 0  -0.02083100005984306 0.02112100087106228 0  -0.01964600011706352 0.01980100013315678 0  -0.0192479994148016 0.02159399911761284 0  -0.01972500048577785 0.02232399955391884 0  -0.01926399953663349 0.02314000017940998 0  -0.02017400041222572 0.02305799908936024 0  -0.01879299990832806 0.0223190002143383 0  -0.00886400043964386 0.01757300086319447 0  -0.009482000023126602 0.0184909999370575 0  -0.009816000238060951 0.01755299977958202 0  -0.01044000033289194 0.01851099915802479 0  -0.02521800063550472 0.07473299652338028 0  -0.0261400006711483 0.07513999938964844 0  -0.02629899978637695 0.07435700297355652 0  -0.02568599954247475 0.06818699836730957 0  -0.0263069998472929 0.06889600306749344 0  -0.0264929998666048 0.06799899786710739 0  -0.02721999958157539 0.06842000037431717 0  -0.01272699981927872 0.08655799925327301 0  -0.01361900009214878 0.08641000092029572 0  -0.01303500030189753 0.08573299646377563 0  -0.01949699968099594 0.08074600249528885 0  -0.0185369998216629 0.08091399818658829 0  -0.01906299963593483 0.08161299675703049 0  -0.01897799968719482 0.08004099875688553 0  -0.02181000076234341 0.02447099983692169 0  -0.02095700055360794 0.02459800057113171 0  -0.02132200077176094 0.02535399980843067 0  -0.02164500020444393 0.02611999958753586 0  -0.02219099923968315 0.02523799985647202 0  -0.02046100050210953 0.02548599988222122 0  -0.02008499950170517 0.02468900009989738 0  -0.01920199953019619 0.02476800046861172 0  -0.01959099993109703 0.02556500025093555 0  -0.02144099958240986 0.02369399927556515 0  -0.02237300015985966 0.02361599914729595 0  -0.02181000076234341 0.02246999926865101 0  -0.02133399993181229 0.02181500010192394 0  -0.02105299942195415 0.02288899943232536 0  -0.02056000009179115 0.0221369992941618 0  -0.01623399928212166 0.02200499922037125 0  -0.01673500053584576 0.02112800069153309 0  -0.0157919991761446 0.02110200002789497 0  -0.01710700057446957 0.02212600037455559 0  -0.01799399964511395 0.02212999947369099 0  -0.01751399971544743 0.02301100082695484 0  0.04253999888896942 0.07980900257825851 0  0.04217299818992615 0.07898200303316116 0  0.04348799958825111 0.07916399836540222 0  0.04568000137805939 0.09014099836349487 0  0.04648600146174431 0.09043700248003006 0  0.04538600146770477 0.09093999862670898 0  0.02767799980938435 0.09903500229120255 0  0.02783099934458733 0.09820800274610519 0  0.02876099944114685 0.09854000061750412 0  0.02668300084769726 0.09949000179767609 0  0.02682299911975861 0.09848900139331818 0  -0.006575000006705523 0.09524700045585632 0  -0.005611000116914511 0.09539999812841415 0  -0.006196999922394753 0.09607899934053421 0  -0.005226000212132931 0.0962349995970726 0  -0.01827800087630749 0.09479299932718277 0  -0.01864200085401535 0.09407900273799896 0  -0.01758100092411041 0.09432700276374817 0  -0.01923299953341484 0.09484300017356873 0  -0.01444400008767843 0.1009450033307076 0  -0.01466900017112494 0.1017440035939217 0  -0.01527400035411119 0.1009820029139519 0  -0.01065200008451939 0.09385599941015244 0  -0.009726000018417835 0.09399899840354919 0  -0.01030999980866909 0.09467999637126923 0  -0.0115750003606081 0.09370599687099457 0  -0.01099099963903427 0.09302599728107452 0  -0.01191399991512299 0.09287700057029724 0  -0.01425000000745058 0.095551997423172 0  -0.01479300018399954 0.09620700031518936 0  -0.01520599983632565 0.09538599848747253 0  -0.01308900024741888 0.09422899782657623 0  -0.01402600016444921 0.09408099949359894 0  -0.0134290000423789 0.09341000020503998 0  0.012512999586761 0.09189800173044205 0  0.01357300020754337 0.09182000160217285 0  0.01298000011593103 0.09260199964046478 0  0.007891999557614326 0.07819200307130814 0  0.008357999846339226 0.07737799733877182 0  0.008949999697506428 0.07811299711465836 0  -0.008609999902546406 0.01665000058710575 0  -0.007826000452041626 0.01680300012230873 0  -0.009434999898076057 0.01659199967980385 0  -0.01029600016772747 0.01653200015425682 0  -0.01374000031501055 0.01671000011265278 0  -0.01394500024616718 0.01782700046896935 0  -0.01453899964690208 0.0169489998370409 0  -0.0131810000166297 0.01759300008416176 0  -0.01317800022661686 0.01864599995315075 0  -0.01240400038659573 0.01772000081837177 0  -0.01265799999237061 0.02160299941897392 0  -0.01313799992203712 0.02065500058233738 0  -0.01225700043141842 0.02064500004053116 0  -0.01184200029820204 0.01973799988627434 0  -0.01130000036209822 0.02056399919092655 0  -0.01273899991065264 0.01965700089931488 0  -0.01354399975389242 0.0216669999063015 0  -0.01490299962460995 0.02095199935138226 0  -0.0153200002387166 0.021934999153018 0  -0.01443199999630451 0.02180100046098232 0  -0.009930999949574471 0.01944299973547459 0  -0.01135899964720011 0.03070499934256077 0  -0.01185700017958879 0.02984699979424477 0  -0.01093100011348724 0.02974200062453747 0  -0.006242000032216311 0.02909399941563606 0  -0.006684999912977219 0.03008699975907803 0  -0.007184999994933605 0.02923900075256824 0  -0.00901500042527914 0.01943800039589405 0  -0.006663999985903502 0.01866599917411804 0  -0.007602000143378973 0.01858600042760372 0  -0.00687999976798892 0.01781499944627285 0  -0.006978000048547983 0.01696700043976307 0  -0.006039999891072512 0.01714999973773956 0  0.04758999869227409 0.08650100231170654 0  0.04837600141763687 0.08601699769496918 0  0.04826800152659416 0.08707199990749359 0  0.04721099883317947 0.08724799752235413 0  0.01540500018745661 0.05811100080609322 0  0.01642199978232384 0.05793699994683266 0  0.01599200069904327 0.05886000022292137 0  0.02822900004684925 0.04218899831175804 0  0.02864699997007847 0.04111199826002121 0  0.0291569996625185 0.04179399833083153 0  0.03060399927198887 0.04618699848651886 0  0.03148400038480759 0.04545199871063232 0  0.03187299892306328 0.04617900028824806 0  0.03054199926555157 0.04968500137329102 0  0.02959699928760529 0.04981200024485588 0  0.03007999993860722 0.04883800074458122 0  0.02959099970757961 0.04804300144314766 0  0.03060499951243401 0.04786499962210655 0  0.02909299917519093 0.0490030013024807 0  0.02861800044775009 0.04996500164270401 0  0.02855999954044819 0.04823499917984009 0  0.02796999923884869 0.04750800132751465 0  0.02752400003373623 0.04842200130224228 0  0.02692000009119511 0.04769299924373627 0  0.04502199962735176 0.08875299990177155 0  0.04392300173640251 0.08883599936962128 0  0.04452899843454361 0.08806499838829041 0  0.04345300048589706 0.08811900019645691 0  0.006566000171005726 0.02288799919188023 0  0.007304000202566385 0.02334900014102459 0  0.006599000189453363 0.0239889994263649 0  0.007400000002235174 0.02434000000357628 0  0.02648499980568886 0.04860800132155418 0  0.02251899987459183 0.05096900090575218 0  0.02208800055086613 0.05189000070095062 0  0.02148500084877014 0.05114100128412247 0  0.02311700023710728 0.05171899870038033 0  0.02914699912071228 0.05077899992465973 0  0.01734299957752228 0.03418299928307533 0  0.01648700051009655 0.03404700011014938 0  0.01686700060963631 0.03312699869275093 0  0.01218200009316206 0.03960299864411354 0  0.01127600017935038 0.03960299864411354 0  0.01170200016349554 0.03868699818849564 0  0.01079500000923872 0.03868899866938591 0  0.01036900002509356 0.03960400074720383 0  0.01031200028955936 0.03777199983596802 0  0.01122099999338388 0.03777299821376801 0  0.0117560001090169 0.04051899909973145 0  -0.02711199969053268 0.06928300112485886 0  -0.0260390006005764 0.06973099708557129 0  -0.02701300010085106 0.0700720027089119 0  -0.02536300010979176 0.06909500062465668 0  -0.02499699965119362 0.06994400173425674 0  -0.02398600056767464 0.07015600055456161 0  -0.02446700073778629 0.07085099816322327 0  -0.02340999990701675 0.06948199868202209 0  -0.02299599908292294 0.07035099714994431 0  -0.02351400069892406 0.07104100286960602 0  -0.02729300037026405 0.06752999871969223 0  -0.01863699965178967 0.08247199654579163 0  -0.01958700083196163 0.08230999857187271 0  -0.01857399940490723 0.09101799875497818 0  -0.01947899907827377 0.09090700000524521 0  -0.01889399997889996 0.09021600335836411 0  -0.0197950005531311 0.09010999649763107 0  -0.019208999350667 0.08941300213336945 0  -0.01772099919617176 0.09355799853801727 0  -0.01683899946510792 0.09368599951267242 0  -0.01658999919891357 0.0944719985127449 0  -0.01392500009387732 0.08558399975299835 0  -0.01122799981385469 0.07981699705123901 0  -0.01027199998497963 0.07998500019311905 0  -0.01081200037151575 0.08067899942398071 0  -0.01044400036334991 0.08152599632740021 0  -0.009883999824523926 0.08083900064229965 0  -0.0150560000911355 0.07750900089740753 0  -0.01553600002080202 0.07660999894142151 0  -0.01456599961966276 0.0767889991402626 0  -0.01359600014984608 0.07696700096130371 0  -0.01406599953770638 0.07607100158929825 0  -0.01801400072872639 0.08021300286054611 0  -0.01751100085675716 0.07949600368738174 0  -0.01848199963569641 0.07931900024414062 0  -0.01945400051772594 0.07914400100708008 0  -0.02406200021505356 0.07173500210046768 0  -0.02460700087249279 0.0740479975938797 0  -0.02420200034976006 0.07492099702358246 0  -0.02267099916934967 0.02422299981117249 0  -0.02295999974012375 0.02480999939143658 0  -0.02316300012171268 0.02538999915122986 0  -0.02338100038468838 0.02601500041782856 0  -0.02248300053179264 0.02603800036013126 0  -0.01968700066208839 0.02390900067985058 0  -0.01879600062966347 0.02397700026631355 0  -0.02058300003409386 0.0238099992275238 0  -0.02208299934864044 0.0230260007083416 0  -0.01769799925386906 0.01828799955546856 0  -0.01732400059700012 0.01905000023543835 0  -0.01840000040829182 0.01868000067770481 0  -0.01697699911892414 0.0178849995136261 0  -0.01835699938237667 0.02311999909579754 0  -0.01
[...]
<PointData  Vectors="velocity"> 
<DataArray  type="Float64"  Name="velocity"  NumberOfComponents="3" format="ascii">4.1029998101294041e-03 3.3289999701082706e-03 0.0000000000000000e+00  3.6420000251382589e-03 2.9710000380873680e-03 0.0000000000000000e+00  0.0000000000000000e+00 7.5599999399855733e-04 0.0000000000000000e+00  2.6500000967644155e-04 7.5599999399855733e-04 0.0000000000000000e+00  -2.6000000070780516e-04 4.9499998567625880e-04 0.0000000000000000e+00  7.9600000753998756e-03 6.4300000667572021e-03 0.0000000000000000e+00  8.0110002309083939e-03 6.4599998295307159e-03 0.0000000000000000e+00  1.2311999686062336e-02 9.4879996031522751e-03 0.0000000000000000e+00  7.8330002725124359e-03 6.2850001268088818e-03 0.0000000000000000e+00  1.2640999630093575e-02 9.8090004175901413e-03 0.0000000000000000e+00  8.1049995496869087e-03 2.4729999713599682e-03 0.0000000000000000e+00  1.3220000080764294e-02 5.5570001713931561e-03 0.0000000000000000e+00  8.1860003992915154e-03 2.6889999862760305e-03 0.0000000000000000e+00  1.3435999862849712e-02 5.9949997812509537e-03 0.0000000000000000e+00  -1.8133999779820442e-02 -5.3378999233245850e-02 0.0000000000000000e+00  1.0799000039696693e-02 -2.0131999626755714e-02 0.0000000000000000e+00  1.0329999960958958e-02 -1.9897000864148140e-02 0.0000000000000000e+00  -1.2721999548375607e-02 -7.6219998300075531e-02 0.0000000000000000e+00  -1.2555999681353569e-02 -6.7097000777721405e-02 0.0000000000000000e+00  -1.0875999927520752e-02 -6.7566998302936554e-02 0.0000000000000000e+00  9.0659996494650841e-03 -1.8131999298930168e-02 0.0000000000000000e+00  -7.3701001703739166e-02 -8.9360997080802917e-02 0.0000000000000000e+00  -6.6428996622562408e-02 -7.9130999743938446e-02 0.0000000000000000e+00  -7.7854998409748077e-02 -9.3483000993728638e-02 0.0000000000000000e+00  -4.8464000225067139e-02 -6.4066998660564423e-02 0.0000000000000000e+00  -5.6705001741647720e-02 -7.3041997849941254e-02 0.0000000000000000e+00  -4.7086000442504883e-02 -5.9792000800371170e-02 0.0000000000000000e+00  -5.5688001215457916e-02 -7.6415002346038818e-02 0.0000000000000000e+00  2.4449999909847975e-03 1.8410000484436750e-03 0.0000000000000000e+00  5.7740001939237118e-03 4.4539999216794968e-03 0.0000000000000000e+00  4.1939998045563698e-03 3.1190000008791685e-03 0.0000000000000000e+00  3.4030000679194927e-03 2.4699999485164881e-03 0.0000000000000000e+00  2.0580000709742308e-03 1.5140000032261014e-03 0.0000000000000000e+00  7.3069999925792217e-03 5.3400001488626003e-03 0.0000000000000000e+00  1.0145000182092190e-02 7.6489998027682304e-03 0.0000000000000000e+00  1.4685000292956829e-02 1.0637000203132629e-02 0.0000000000000000e+00  1.1853000149130821e-02 8.4319999441504478e-03 0.0000000000000000e+00  3.8940000813454390e-03 3.1550000421702862e-03 0.0000000000000000e+00  7.5599999399855733e-04 3.8599999970756471e-04 0.0000000000000000e+00  7.5599999399855733e-04 7.5599999399855733e-04 0.0000000000000000e+00  5.1699997857213020e-04 7.5599999399855733e-04 0.0000000000000000e+00  4.0359999984502792e-03 3.3209999091923237e-03 0.0000000000000000e+00  4.0130000561475754e-03 3.2999999821186066e-03 0.0000000000000000e+00  2.6564000174403191e-02 1.8249999731779099e-02 0.0000000000000000e+00  1.9687000662088394e-02 1.4320000074803829e-02 0.0000000000000000e+00  2.4877000600099564e-02 1.7155999317765236e-02 0.0000000000000000e+00  2.1691000089049339e-02 1.5565999783575535e-02 0.0000000000000000e+00  1.6456000506877899e-02 1.2368000112473965e-02 0.0000000000000000e+00  2.1997999399900436e-02 1.5629999339580536e-02 0.0000000000000000e+00  7.2273999452590942e-02 1.1441799998283386e-01 0.0000000000000000e+00  7.0277996361255646e-02 1.1617299914360046e-01 0.0000000000000000e+00  -1.3838999904692173e-02 -3.6228001117706299e-02 0.0000000000000000e+00  8.3571001887321472e-02 1.1509100347757339e-01 0.0000000000000000e+00  7.7914997935295105e-02 1.0552799701690674e-01 0.0000000000000000e+00  8.2488998770713806e-02 1.1822099983692169e-01 0.0000000000000000e+00  -2.8482999652624130e-02 9.0750999748706818e-02 0.0000000000000000e+00  -2.2098999470472336e-02 1.0609800368547440e-01 0.0000000000000000e+00  -1.8171999603509903e-02 1.0413199663162231e-01 0.0000000000000000e+00  -3.7459999322891235e-02 7.7987998723983765e-02 0.0000000000000000e+00  -3.1207000836730003e-02 9.6548996865749359e-02 0.0000000000000000e+00  -8.6161002516746521e-02 -8.7250001728534698e-02 0.0000000000000000e+00  -9.3873001635074615e-02 -9.7554996609687805e-02 0.0000000000000000e+00  -8.2538001239299774e-02 -8.3750002086162567e-02 0.0000000000000000e+00  -9.0691000223159790e-02 -9.4130001962184906e-02 0.0000000000000000e+00  -1.6789999790489674e-03 1.0350000113248825e-02 0.0000000000000000e+00  -2.1969999652355909e-03 8.6890002712607384e-03 0.0000000000000000e+00  -4.9740001559257507e-03 9.7629996016621590e-03 0.0000000000000000e+00  1.1068999767303467e-02 -3.0239000916481018e-02 0.0000000000000000e+00  4.5440001413226128e-03 1.7162999138236046e-02 0.0000000000000000e+00  4.1970000602304935e-03 -3.9101999253034592e-02 0.0000000000000000e+00  5.5430000647902489e-03 -3.8024999201297760e-02 0.0000000000000000e+00  -5.4391998797655106e-02 -4.5972000807523727e-02 0.0000000000000000e+00  -6.2357999384403229e-02 -5.7245001196861267e-02 0.0000000000000000e+00  -5.4060999304056168e-02 -4.2973998934030533e-02 0.0000000000000000e+00  -4.6849999576807022e-02 -3.6423001438379288e-02 0.0000000000000000e+00  -5.3892999887466431e-02 -4.9717001616954803e-02 0.0000000000000000e+00  -4.6165999025106430e-02 -3.9593998342752457e-02 0.0000000000000000e+00  -1.8366999924182892e-02 2.1160000469535589e-03 0.0000000000000000e+00  -1.4720999635756016e-02 7.9490002244710922e-03 0.0000000000000000e+00  -1.3185000047087669e-02 7.2650001384317875e-03 0.0000000000000000e+00  -3.2862998545169830e-02 -1.5139999799430370e-02 0.0000000000000000e+00  -2.6863999664783478e-02 -8.6040003225207329e-03 0.0000000000000000e+00  -3.2710000872612000e-02 -1.8469000235199928e-02 0.0000000000000000e+00  -9.4975002110004425e-02 3.3208001405000687e-02 0.0000000000000000e+00  -8.7912000715732574e-02 5.3422998636960983e-02 0.0000000000000000e+00  -1.0022000223398209e-01 3.7422999739646912e-02 0.0000000000000000e+00  1.6220000106841326e-03 5.3410999476909637e-02 0.0000000000000000e+00  1.0805999860167503e-02 6.9733001291751862e-02 0.0000000000000000e+00  1.4018000103533268e-02 7.0952996611595154e-02 0.0000000000000000e+00  -2.2670000325888395e-03 1.5109999803826213e-03 0.0000000000000000e+00  -2.7280000504106283e-03 1.7419999931007624e-03 0.0000000000000000e+00  -2.0250000525265932e-03 1.5109999803826213e-03 0.0000000000000000e+00  -1.7729999963194132e-03 1.5109999803826213e-03 0.0000000000000000e+00  -7.5599999399855733e-04 7.5599999399855733e-04 0.0000000000000000e+00  7.0930002257227898e-03 3.8149999454617500e-03 0.0000000000000000e+00  -7.5599999399855733e-04 5.0800002645701170e-04 0.0000000000000000e+00  6.2310001812875271e-03 2.7670001145452261e-03 0.0000000000000000e+00  1.3933000154793262e-02 7.9420004040002823e-03 0.0000000000000000e+00  7.5679998844861984e-03 3.2800000626593828e-03 0.0000000000000000e+00  4.1724998503923416e-02 2.4373000487685204e-02 0.0000000000000000e+00  3.2515998929738998e-02 1.9404999911785126e-02 0.0000000000000000e+00  3.4386001527309418e-02 1.9611999392509460e-02 0.0000000000000000e+00  2.4548999965190887e-02 1.3416999951004982e-02 0.0000000000000000e+00  3.3241998404264450e-02 1.8117999657988548e-02 0.0000000000000000e+00  2.3119999095797539e-02 1.3319999910891056e-02 0.0000000000000000e+00  3.9590999484062195e-02 2.3980999365448952e-02 0.0000000000000000e+00  2.8511999174952507e-02 1.8729999661445618e-02 0.0000000000000000e+00  3.1831998378038406e-02 2.0881000906229019e-02 0.0000000000000000e+00  3.6182999610900879e-02 2.2787999361753464e-02 0.0000000000000000e+00  2.0522000268101692e-02 9.9459998309612274e-03 0.0000000000000000e+00  4.0800999850034714e-02 3.8063999265432358e-02 0.0000000000000000e+00  4.2068000882863998e-02 3.8931000977754593e-02 0.0000000000000000e+00  4.9277998507022858e-02 4.2674001306295395e-02 0.0000000000000000e+00  8.0081000924110413e-02 5.2009999752044678e-02 0.0000000000000000e+00  7.8059002757072449e-02 5.1229000091552734e-02 0.0000000000000000e+00  7.4988000094890594e-02 5.0926998257637024e-02 0.0000000000000000e+00  1.9640000537037849e-02 9.1559998691082001e-03 0.0000000000000000e+00  1.2283000163733959e-02 4.8050000332295895e-03 0.0000000000000000e+00  1.2839999981224537e-02 5.0880000926554203e-03 0.0000000000000000e+00  7.8210001811385155e-03 2.4170000106096268e-03 0.0000000000000000e+00  -3.2259998843073845e-03 1.9910000264644623e-03 0.0000000000000000e+00  -3.7779998965561390e-03 2.2670000325888395e-03 0.0000000000000000e+00  6.9127999246120453e-02 7.8988999128341675e-02 0.0000000000000000e+00  6.2421001493930817e-02 6.6794998943805695e-02 0.0000000000000000e+00  6.6206000745296478e-02 7.4183002114295959e-02 0.0000000000000000e+00  7.3515996336936951e-02 8.7580002844333649e-02 0.0000000000000000e+00  1.1107800155878067e-01 1.6376399993896484e-01 0.0000000000000000e+00  1.1193799972534180e-01 1.7021700739860535e-01 0.0000000000000000e+00  1.0246100276708603e-01 1.6946999728679657e-01 0.0000000000000000e+00  3.3996000885963440e-02 3.6233000457286835e-02 0.0000000000000000e+00  -1.9164999946951866e-02 -1.2643000110983849e-02 0.0000000000000000e+00  -1.9410999491810799e-02 -1.3133999891579151e-02 0.0000000000000000e+00  3.7829998880624771e-02 5.6324999779462814e-02 0.0000000000000000e+00  -1.9907999783754349e-02 -1.5147999860346317e-02 0.0000000000000000e+00  -2.0145000889897346e-02 -1.5859000384807587e-02 0.0000000000000000e+00  5.1444999873638153e-02 9.8769001662731171e-02 0.0000000000000000e+00  6.3551999628543854e-02 1.1037799715995789e-01 0.0000000000000000e+00  5.6026000529527664e-02 9.2542998492717743e-02 0.0000000000000000e+00  5.8940999209880829e-02 8.7926998734474182e-02 0.0000000000000000e+00  4.6549998223781586e-02 7.5096003711223602e-02 0.0000000000000000e+00  6.8239003419876099e-02 1.0510899871587753e-01 0.0000000000000000e+00  7.5814999639987946e-02 1.2163499742746353e-01 0.0000000000000000e+00  7.2024002671241760e-02 1.0079400241374969e-01 0.0000000000000000e+00  7.5686998665332794e-02 9.7478002309799194e-02 0.0000000000000000e+00  8.5139997303485870e-02 1.1259000003337860e-01 0.0000000000000000e+00  8.9028000831604004e-02 1.0901699960231781e-01 0.0000000000000000e+00  8.9450001716613770e-02 1.2069100141525269e-01 0.0000000000000000e+00  9.5129996538162231e-02 1.3443100452423096e-01 0.0000000000000000e+00  9.2431999742984772e-02 1.2523399293422699e-01 0.0000000000000000e+00  9.7696997225284576e-02 1.3933800160884857e-01 0.0000000000000000e+00  -1.3078000396490097e-02 5.2100000903010368e-04 0.0000000000000000e+00  -1.3330000452697277e-02 2.6900001103058457e-04 0.0000000000000000e+00  7.4430000968277454e-03 6.0680001042783260e-03 0.0000000000000000e+00  7.9079996794462204e-03 6.6510001197457314e-03 0.0000000000000000e+00  9.7562000155448914e-02 1.2249100208282471e-01 0.0000000000000000e+00  1.3529600203037262e-01 1.5761299431324005e-01 0.0000000000000000e+00  1.3583299517631531e-01 1.6381600499153137e-01 0.0000000000000000e+00  1.4189100265502930e-01 1.5859399735927582e-01 0.0000000000000000e+00  1.2919899821281433e-01 1.6329599916934967e-01 0.0000000000000000e+00  6.8944998085498810e-02 1.2741699814796448e-01 0.0000000000000000e+00  5.1477000117301941e-02 3.4419998526573181e-02 0.0000000000000000e+00  5.7282999157905579e-02 3.9110999554395676e-02 0.0000000000000000e+00  4.2180001735687256e-02 2.8680000454187393e-02 0.0000000000000000e+00  1.5821599960327148e-01 1.0862399637699127e-01 0.0000000000000000e+00  1.6274599730968475e-01 1.1004000157117844e-01 0.0000000000000000e+00  1.5529499948024750e-01 1.0437499731779099e-01 0.0000000000000000e+00  1.6110000014305115e-01 1.0566700249910355e-01 0.0000000000000000e+00  1.6737000644207001e-01 1.1063700169324875e-01 0.0000000000000000e+00  1.5908800065517426e-01 1.0064700245857239e-01 0.0000000000000000e+00  1.5279099345207214e-01 9.9255003035068512e-02 0.0000000000000000e+00  1.6562999784946442e-01 1.1341100186109543e-01 0.0000000000000000e+00  9.3219997361302376e-03 -1.8387999385595322e-02 0.0000000000000000e+00  -1.4480000361800194e-02 -6.7419998347759247e-02 0.0000000000000000e+00  9.5560001209378242e-03 -1.8621999770402908e-02 0.0000000000000000e+00  -1.5424000099301338e-02 -7.7110998332500458e-02 0.0000000000000000e+00  -1.7727000638842583e-02 -7.7993996441364288e-02 0.0000000000000000e+00  -2.2004999220371246e-02 -8.8949002325534821e-02 0.0000000000000000e+00  -2.1432999521493912e-02 -8.0393999814987183e-02 0.0000000000000000e+00  -2.2970000281929970e-02 -9.8771996796131134e-02 0.0000000000000000e+00  -2.6579000055789948e-02 -9.9827997386455536e-02 0.0000000000000000e+00  -2.5869000703096390e-02 -9.0439997613430023e-02 0.0000000000000000e+00  8.8020004332065582e-03 -1.8131999298930168e-02 0.0000000000000000e+00  -4.7375999391078949e-02 -5.6768000125885010e-02 0.0000000000000000e+00  -3.9737999439239502e-02 -4.8294000327587128e-02 0.0000000000000000e+00  -7.6029999181628227e-03 9.0899999486282468e-04 0.0000000000000000e+00  -4.7949999570846558e-03 2.1699999924749136e-03 0.0000000000000000e+00  -7.6120002195239067e-03 -5.3000001935288310e-04 0.0000000000000000e+00  -5.3369998931884766e-03 2.2800000442657620e-04 0.0000000000000000e+00  -8.1019997596740723e-03 -3.0819999519735575e-03 0.0000000000000000e+00  -8.1949997693300247e-03 7.0349997840821743e-03 0.0000000000000000e+00  -1.1669999919831753e-02 5.4310001432895660e-03 0.0000000000000000e+00  -9.1970004141330719e-03 7.6879998669028282e-03 0.0000000000000000e+00  -7.0703998208045959e-02 -8.3515003323554993e-02 0.0000000000000000e+00  -1.1625999957323074e-01 -1.5683299303054810e-01 0.0000000000000000e+00  -1.2066499888896942e-01 -1.5998800098896027e-01 0.0000000000000000e+00  -1.1938399821519852e-01 -1.5473100543022156e-01 0.0000000000000000e+00  -1.2088000029325485e-01 -1.5208299458026886e-01 0.0000000000000000e+00  -1.2332999706268311e-01 -1.5793099999427795e-01 0.0000000000000000e+00  -9.0764001011848450e-02 -1.4269000291824341e-01 0.0000000000000000e+00  -8.4991000592708588e-02 -1.4440299570560455e-01 0.0000000000000000e+00  -9.1883003711700439e-02 -1.5205800533294678e-01 0.0000000000000000e+00  -9.8247997462749481e-02 -1.5839199721813202e-01 0.0000000000000000e+00  -9.2208996415138245e-02 -1.6062200069427490e-01 0.0000000000000000e+00  -6.4053997397422791e-02 -8.6106002330780029e-02 0.0000000000000000e+00  -6.9657996296882629e-02 -9.8732002079486847e-02 0.0000000000000000e+00  -6.1275999993085861e-02 -8.8647998869419098e-02 0.0000000000000000e+00  -5.2925001829862595e-02 -7.9296998679637909e-02 0.0000000000000000e+00  -2.4233000352978706e-02 -8.0695003271102905e-02 0.0000000000000000e+00  -2.0809000357985497e-02 -6.2336001545190811e-02 0.0000000000000000e+00  -2.3360999301075935e-02 -6.1802998185157776e-02 0.0000000000000000e+00  7.5599999399855733e-04 1.9000000611413270e-04 0.0000000000000000e+00  7.5599999399855733e-04 0.0000000000000000e+00 0.0000000000000000e+00  9.3199999537318945e-04 -3.5200000274926424e-04 0.0000000000000000e+00  1.1210000375285745e-03 -7.3099997825920582e-04 0.0000000000000000e+00  1.4619999565184116e-03 1.0039999615401030e-03 0.0000000000000000e+00  1.1540000326931477e-02 8.8200001046061516e-03 0.0000000000000000e+00  1.6266999766230583e-02 1.1905999854207039e-02 0.0000000000000000e+00  7.4570002034306526e-03 5.9290002100169659e-03 0.0000000000000000e+00  7.5599999399855733e-04 5.7600002037361264e-04 0.0000000000000000e+00  -7.5599999399855733e-04 0.0000000000000000e+00 0.0000000000000000e+00  6.1719999648630619e-03 4.8070000484585762e-03 0.0000000000000000e+00  -7.5599999399855733e-04 0.0000000000000000e+00 0.0000000000000000e+00  -7.5599999399855733e-04 0.0000000000000000e+00 0.0000000000000000e+00  1.7195999622344971e-02 1.2705000117421150e-02 0.0000000000000000e+00  2.7538999915122986e-02 1.8712000921368599e-02 0.0000000000000000e+00  3.2797001302242279e-02 2.1386999636888504e-02 0.0000000000000000e+00  2.6940999552607536e-02 1.8172999843955040e-02 0.0000000000000000e+00  3.3932998776435852e-02 3.3966001123189926e-02 0.0000000000000000e+00  3.4145999699831009e-02 3.2682999968528748e-02 0.0000000000000000e+00  2.7390999719500542e-02 2.8255999088287354e-02 0.0000000000000000e+00  4.3588999658823013e-02 2.4653000757098198e-02 0.0000000000000000e+00  5.8221999555826187e-02 3.3789001405239105e-02 0.0000000000000000e+00  6.2808997929096222e-02 3.7436001002788544e-02 0.0000000000000000e+00  6.0938000679016113e-02 3.7399999797344208e-02 0.0000000000000000e+00  5.8517001569271088e-02 3.2878998667001724e-02 0.0000000000000000e+00  5.1998000591993332e-02 2.8728999197483063e-02 0.0000000000000000e+00  6.6197000443935394e-02 4.0628999471664429e-02 0.0000000000000000e+00  6.8472996354103088e-02 4.3384000658988953e-02 0.0000000000000000e+00  6.5638996660709381e-02 4.3372999876737595e-02 0.0000000000000000e+00  6.7179001867771149e-02 7.9217001795768738e-02 0.0000000000000000e+00  6.0058999806642532e-02 6.8585000932216644e-02 0.0000000000000000e+00  6.6321998834609985e-02 8.0458998680114746e-02 0.0000000000000000e+00  9.1559998691082001e-02 1.2481600046157837e-01 0.0000000000000000e+00  8.9277997612953186e-02 1.1860600113868713e-01 0.0000000000000000e+00  9.6088998019695282e-02 1.3415800034999847e-01 0.0000000000000000e+00  1.0292699933052063e-01 2.0621700584888458e-01 0.0000000000000000e+00  1.0464599728584290e-01 2.2195999324321747e-01 0.0000000000000000e+00  1.0260199755430222e-01 2.1510900557041168e-01 0.0000000000000000e+00  -1.3598999939858913e-02 -3.5509001463651657e-02 0.0000000000000000e+00  8.6883001029491425e-02 1.3956800103187561e-01 0.0000000000000000e+00  8.6473003029823303e-02 1.4798399806022644e-01 0.0000000000000000e+00  9.1172002255916595e-02 1.4827500283718109e-01 0.0000000000000000e+00  9.1076001524925232e-02 1.3940800726413727e-01 0.0000000000000000e+00  8.6309000849723816e-02 1.3316600024700165e-01 0.0000000000000000e+00  8.4503002464771271e-02 1.2585200369358063e-01 0.0000000000000000e+00  1.0302700102329254e-01 1.5437600016593933e-01 0.0000000000000000e+00  9.9830001592636108e-02 1.4444999396800995e-01 0.0000000000000000e+00  1.0520099848508835e-01 1.6013300418853760e-01 0.0000000000000000e+00  1.0145699977874756e-01 1.4968800544738770e-01 0.0000000000000000e+00  8.6368001997470856e-02 1.1755300313234329e-01 0.0000000000000000e+00  8.7989002466201782e-02 1.2715399265289307e-01 0.0000000000000000e+00  9.3272998929023743e-02 1.3832700252532959e-01 0.0000000000000000e+00  9.6295997500419617e-02 1.4985799789428711e-01 0.0000000000000000e+00  9.9817000329494476e-02 1.6156600415706635e-01 0.0000000000000000e+00  1.0091300308704376e-01 1.5562400221824646e-01 0.0000000000000000e+00  9.1535001993179321e-02 1.2945599853992462e-01 0.0000000000000000e+00  -5.2978999912738800e-02 4.9343001097440720e-02 0.0000000000000000e+00  -5.9174999594688416e-02 3.5346001386642456e-02 0.0000000000000000e+00  -6.1135999858379364e-02 5.1183000206947327e-02 0.0000000000000000e+00  -3.7999998778104782e-02 9.3365997076034546e-02 0.0000000000000000e+00  -4.0872998535633087e-02 8.1704996526241302e-02 0.0000000000000000e+00  -4.7208998352289200e-02 7.6457001268863678e-02 0.0000000000000000e+00  -4.5706000179052353e-02 6.3713997602462769e-02 0.0000000000000000e+00  -6.9861002266407013e-02 -6.4850002527236938e-02 0.0000000000000000e+00  -5.8246999979019165e-02 -5.0425998866558075e-02 0.0000000000000000e+00  -6.1882998794317245e-02 -5.4014999419450760e-02 0.0000000000000000e+00  -7.0537999272346497e-02 -6.8346001207828522e-02 0.0000000000000000e+00  -9.5123998820781708e-02 -1.0096299648284912e-01 0.0000000000000000e+00  -1.2533299624919891e-01 -1.2659700214862823e-01 0.0000000000000000e+00  -1.2460900098085403e-01 -1.3027499616146088e-01 0.0000000000000000e+00  -1.3243199884891510e-01 -1.3384999334812164e-01 0.0000000000000000e+00  -8.1565998494625092e-02 -8