<?xml version="1.0"?>
<VTKFile type="UnstructuredGrid"  version="0.1"  >
<UnstructuredGrid>
<Piece  NumberOfPoints="6340" NumberOfCells="12376">
<Points>
<DataArray  type="Float64"  NumberOfComponents="3"  format="ascii">-0.01954399980604649 0.02080300077795982 0  -0.02033600024878979 0.02152499929070473 0  -0.02054000087082386 0.02051999978721142 0  -0.0211970005184412 0.02136700041592121 0  -0.01975799910724163 0.01987599954009056 0  -0.01940800063312054 0.02168799936771393 0  -0.01999799907207489 0.02248699963092804 0  -0.01951700076460838 0.02328599989414215 0  -0.02056000009179115 0.02332600019872189 0  -0.01892999932169914 0.02240299992263317 0  -0.007544000167399645 0.01809800043702126 0  -0.008271000348031521 0.01892299950122833 0  -0.008597999811172485 0.01798000000417233 0  -0.009333999827504158 0.018843999132514 0  -0.02558399923145771 0.08014799654483795 0  -0.02650200016796589 0.08075600117444992 0  -0.02668800018727779 0.07995100319385529 0  -0.02622699923813343 0.07328899949789047 0  -0.0268350001424551 0.07415299862623215 0  -0.02704700082540512 0.07324100285768509 0  -0.02776999957859516 0.07382000237703323 0  -0.01156799960881472 0.09042699635028839 0  -0.01248100027441978 0.09042400121688843 0  -0.01199399959295988 0.08958599716424942 0  -0.01944299973547459 0.08544199913740158 0  -0.01844399981200695 0.08543899655342102 0  -0.01888900063931942 0.08627700060606003 0  -0.01899800077080727 0.08460000157356262 0  -0.02252599969506264 0.02511199936270714 0  -0.02155799977481365 0.02507499977946281 0  -0.02201800048351288 0.02597500011324883 0  -0.02243299968540668 0.0268779993057251 0  -0.02300499938428402 0.02602799981832504 0  -0.02104200050234795 0.02594099938869476 0  -0.02056000009179115 0.02503900043666363 0  -0.0195470005273819 0.02500000037252903 0  -0.02004400081932545 0.02589800022542477 0  -0.0220589991658926 0.02418899908661842 0  -0.02311999909579754 0.02429600059986115 0  -0.02240999974310398 0.02292999997735023 0  -0.02182099968194962 0.02217100001871586 0  -0.02156299911439419 0.02326899953186512 0  -0.02094800025224686 0.02240400016307831 0  -0.01599700003862381 0.02198000065982342 0  -0.01651700027287006 0.02110300026834011 0  -0.01544800028204918 0.02108000032603741 0  -0.01699200086295605 0.02210099995136261 0  -0.01800600066781044 0.02216099947690964 0  -0.01750800013542175 0.02303300052881241 0  0.0417109988629818 0.08501099795103073 0  0.04157999902963638 0.08413299918174744 0  0.04284400120377541 0.08449400216341019 0  0.04192600026726723 0.09647999703884125 0  0.04265899956226349 0.09690599888563156 0  0.04167300090193748 0.09738499671220779 0  0.02580399997532368 0.1050970032811165 0  0.02592799998819828 0.104143999516964 0  0.02677500061690807 0.1046250015497208 0  0.02491199970245361 0.1055300012230873 0  0.0250220000743866 0.104373000562191 0  -0.00545400008559227 0.09882300347089767 0  -0.004550999961793423 0.09886399656534195 0  -0.005084000062197447 0.09969999641180038 0  -0.00417400011792779 0.09974599629640579 0  -0.01634600013494492 0.1004009991884232 0  -0.01673400029540062 0.09968099743127823 0  -0.01570400036871433 0.09977100044488907 0  -0.01725899986922741 0.1006200015544891 0  -0.01265600044280291 0.1063769981265068 0  -0.01285099983215332 0.1072850003838539 0  -0.01342399977147579 0.1065689995884895 0  -0.00926200021058321 0.09800499677658081 0  -0.008402000181376934 0.0979899987578392 0  -0.008932000026106834 0.09883499890565872 0  -0.01011900044977665 0.09801699966192245 0  -0.009588999673724174 0.09717400372028351 0  -0.01044599991291761 0.09718599915504456 0  -0.01256399974226952 0.1005109995603561 0  -0.01305599976330996 0.1013190001249313 0  -0.01345499977469444 0.1005060002207756 0  -0.01151099987328053 0.09886500239372253 0  -0.01238499954342842 0.09887400269508362 0  -0.01184399984776974 0.0980369970202446 0  0.01197700016200542 0.09525299817323685 0  0.01293299999088049 0.09526599943637848 0  0.01241100020706654 0.09612199664115906 0  0.007569000124931335 0.07877200096845627 0  0.008200000040233135 0.07793200016021729 0  0.0085249999538064 0.07878399640321732 0  -0.007220000028610229 0.01723000034689903 0  -0.006357000209391117 0.01748000085353851 0  -0.008131000213325024 0.0170889999717474 0  -0.009081999771296978 0.01694200001657009 0  -0.01291999965906143 0.01682000048458576 0  -0.01320500019937754 0.01790899969637394 0  -0.01382699981331825 0.01701699942350388 0  -0.01233999989926815 0.01772500015795231 0  -0.0123870000243187 0.01875099912285805 0  -0.01148100011050701 0.01791100017726421 0  -0.01195100042968988 0.02168500050902367 0  -0.01244200021028519 0.02072999998927116 0  -0.01145699992775917 0.02077200077474117 0  -0.01095100026577711 0.01992099918425083 0  -0.01038699969649315 0.0207700002938509 0  -0.01194600015878677 0.01977100037038326 0  -0.01294699963182211 0.0217059999704361 0  -0.01443399954587221 0.02093599922955036 0  -0.01495900005102158 0.02191399969160557 0  -0.01394800003618002 0.02179500088095665 0  -0.008812000043690205 0.01979799941182137 0  -0.0109479995444417 0.03070200048387051 0  -0.01146399974822998 0.02983300015330315 0  -0.01042100042104721 0.02977400086820126 0  -0.005171999800950289 0.02952400036156178 0  -0.005708000157028437 0.03043900057673454 0  -0.00622300012037158 0.02956599928438663 0  -0.007796999998390675 0.01988800056278706 0  -0.005154000129550695 0.01942599937319756 0  -0.006190999876707792 0.01922599971294403 0  -0.00535399978980422 0.01857900060713291 0  -0.005423000082373619 0.01775100082159042 0  -0.004389999900013208 0.01805000007152557 0  0.04394099861383438 0.09251599758863449 0  0.04501499980688095 0.0921349972486496 0  0.04433700069785118 0.09318400174379349 0  0.04326000064611435 0.09324900060892105 0  0.0175199992954731 0.05996099859476089 0  0.01860000006854534 0.05996900051832199 0  0.018070999532938 0.06082199886441231 0  0.03226000070571899 0.04622700065374374 0  0.03279700130224228 0.04521600157022476 0  0.03324500098824501 0.04599799960851669 0  0.034170001745224 0.05066400021314621 0  0.03513199836015701 0.05007399991154671 0  0.0354200005531311 0.05084900185465813 0  0.03366300091147423 0.05407499894499779 0  0.03270899876952171 0.05407899990677834 0  0.03331099823117256 0.05319299921393394 0  0.03293300047516823 0.05233699828386307 0  0.03395399823784828 0.05231599882245064 0  0.03231799975037575 0.05320699885487556 0  0.03172599896788597 0.05408100038766861 0  0.03189300000667572 0.05237000063061714 0  0.03139799833297729 0.05154500156641006 0  0.03084399923682213 0.05238600075244904 0  0.03033100068569183 0.05154300108551979 0  0.0413069985806942 0.09479200094938278 0  0.04031600058078766 0.09478099644184113 0  0.04084999859333038 0.09393999725580215 0  0.039877999573946 0.09389600157737732 0  0.009510999545454979 0.02552399970591068 0  0.01031900011003017 0.02604500018060207 0  0.009494000114500523 0.02658000029623508 0  0.01037800032645464 0.0270019993185997 0  0.02978700026869774 0.05238600075244904 0  0.02553500048816204 0.05404900014400482 0  0.02500100061297417 0.05490000173449516 0  0.02446500025689602 0.05403200164437294 0  0.02606000006198883 0.05491499975323677 0  0.03214500099420547 0.05494999885559082 0  0.02098600007593632 0.03699399903416634 0  0.02003500051796436 0.03681699931621552 0  0.02050499990582466 0.03596299886703491 0  0.01495600026100874 0.04187000170350075 0  0.01394599955528975 0.04182299971580505 0  0.01446700002998114 0.04097500070929527 0  0.01345600001513958 0.04092799872159958 0  0.01293499954044819 0.04177499935030937 0  0.01296500023454428 0.04002999886870384 0  0.0139769995585084 0.0400799997150898 0  0.01443600002676249 0.04271899908781052 0  -0.02763799950480461 0.07471399754285812 0  -0.02654200047254562 0.07498700171709061 0  -0.02751700021326542 0.0755309984087944 0  -0.0258760005235672 0.07418700307607651 0  -0.02548299916088581 0.07501800358295441 0  -0.02445700019598007 0.07505299896001816 0  -0.0249249991029501 0.07587800174951553 0  -0.02389200031757355 0.07423199713230133 0  -0.02345100045204163 0.07507400214672089 0  -0.02395699918270111 0.07590200006961823 0  -0.0278680007904768 0.07289499789476395 0  -0.01833399944007397 0.08710599690675735 0  -0.0193329993635416 0.08711100369691849 0  -0.01689800061285496 0.09631899744272232 0  -0.0178069993853569 0.09635599702596664 0  -0.01730000041425228 0.09549999982118607 0  -0.01820600032806396 0.09554199874401093 0  -0.01771100051701069 0.09468100219964981 0  -0.01588100008666515 0.09895099699497223 0  -0.01502799987792969 0.09893999993801117 0  -0.014767000451684 0.09975499659776688 0  -0.01293100044131279 0.08958499878644943 0  -0.01113799959421158 0.08290500193834305 0  -0.01014299970120192 0.08290299773216248 0  -0.01059100031852722 0.08374100178480148 0  -0.01006700005382299 0.08457800000905991 0  -0.009608999826014042 0.0837400034070015 0  -0.01521799992769957 0.08118899911642075 0  -0.01573999971151352 0.08032499998807907 0  -0.0147529998794198 0.08033200353384018 0  -0.01376600004732609 0.08033899962902069 0  -0.01427599973976612 0.07947500050067902 0  -0.01800099946558475 0.08460000157356262 0  -0.01755799911916256 0.08374900370836258 0  -0.01855500042438507 0.08374600112438202 0  -0.01955300010740757 0.08374500274658203 0  -0.02449299953877926 0.07673999667167664 0  -0.02498999983072281 0.07930299639701843 0  -0.0245520006865263 0.08015699684619904 0  -0.0234960000962019 0.02501999959349632 0  -0.02386000007390976 0.02572000026702881 0  -0.0241090003401041 0.02641700021922588 0  -0.02437799982726574 0.02716699987649918 0  -0.02338100038468838 0.02696800045669079 0  -0.02005200088024139 0.02415799908339977 0  -0.01902900077402592 0.02410699985921383 0  -0.02107900008559227 0.02417699992656708 0  -0.02275400049984455 0.02359299920499325 0  -0.0174540001899004 0.01826100051403046 0  -0.01707099936902523 0.01902399957180023 0  -0.01827000081539154 0.0186500009149313 0  -0.01661599986255169 0.01786099933087826 0  -0.01847800053656101 0.02319700084626675 0  -0.01650100015103817 0.
[...]
<PointData  Vectors="velocity"> 
<DataArray  type="Float64"  Name="velocity"  NumberOfComponents="3" format="ascii">6.5200001699849963e-04 6.1200000345706940e-04 0.0000000000000000e+00  4.5900000259280205e-04 4.3399998685345054e-04 0.0000000000000000e+00  7.5599999399855733e-04 0.0000000000000000e+00 0.0000000000000000e+00  1.0209999745711684e-03 0.0000000000000000e+00 0.0000000000000000e+00  7.5599999399855733e-04 0.0000000000000000e+00 0.0000000000000000e+00  1.2339999666437507e-03 1.1060000397264957e-03 0.0000000000000000e+00  9.9299999419599771e-04 8.8599999435245991e-04 0.0000000000000000e+00  1.4659999869763851e-03 1.2410000199452043e-03 0.0000000000000000e+00  7.0199999026954174e-04 6.2599999364465475e-04 0.0000000000000000e+00  1.9460000330582261e-03 1.6540000215172768e-03 0.0000000000000000e+00  -5.9340000152587891e-03 -8.5800001397728920e-04 0.0000000000000000e+00  -8.0300000263378024e-04 1.6400000313296914e-03 0.0000000000000000e+00  -3.7720000836998224e-03 2.0999999833293259e-05 0.0000000000000000e+00  3.3099998836405575e-04 2.0419999491423368e-03 0.0000000000000000e+00  -6.4260000362992287e-03 -7.7789998613297939e-03 0.0000000000000000e+00  1.2890000361949205e-03 -5.0220000557601452e-03 0.0000000000000000e+00  1.7590000061318278e-03 -4.7869998961687088e-03 0.0000000000000000e+00  -6.1070001684129238e-03 -2.1466000005602837e-02 0.0000000000000000e+00  -6.2299999408423901e-03 -1.5061999671161175e-02 0.0000000000000000e+00  -5.7580000720918179e-03 -1.5375999733805656e-02 0.0000000000000000e+00  3.7779998965561390e-03 -4.5329998247325420e-03 0.0000000000000000e+00  -6.7064002156257629e-02 -5.6407000869512558e-02 0.0000000000000000e+00  -5.9555999934673309e-02 -4.3035000562667847e-02 0.0000000000000000e+00  -7.1019001305103302e-02 -5.7108998298645020e-02 0.0000000000000000e+00  -3.0696999281644821e-02 -1.9486999139189720e-02 0.0000000000000000e+00  -3.8956001400947571e-02 -2.7404999360442162e-02 0.0000000000000000e+00  -3.3440999686717987e-02 -1.6932999715209007e-02 0.0000000000000000e+00  -3.5319000482559204e-02 -2.9920000582933426e-02 0.0000000000000000e+00  -1.1300000187475234e-04 -7.8999997640494257e-05 0.0000000000000000e+00  -4.4000000343658030e-05 -9.9999997473787516e-06 0.0000000000000000e+00  -3.4800000139512122e-04 -2.4100000155158341e-04 0.0000000000000000e+00  -5.2000000141561031e-04 -3.3800001256167889e-04 0.0000000000000000e+00  -1.6199999663513154e-04 -9.8999997135251760e-05 0.0000000000000000e+00  -2.5199999799951911e-04 -1.4099999680183828e-04 0.0000000000000000e+00  3.0700000934302807e-04 2.8800001018680632e-04 0.0000000000000000e+00  9.8600005730986595e-04 8.1599998520687222e-04 0.0000000000000000e+00  1.2300000526010990e-04 1.5999999595806003e-04 0.0000000000000000e+00  3.7000001611886546e-05 4.3000000005122274e-05 0.0000000000000000e+00  1.8810000037774444e-03 0.0000000000000000e+00 0.0000000000000000e+00  1.5109999803826213e-03 0.0000000000000000e+00 0.0000000000000000e+00  1.2730000307783484e-03 0.0000000000000000e+00 0.0000000000000000e+00  2.3900000087451190e-04 2.2499999613501132e-04 0.0000000000000000e+00  3.9100000867620111e-04 3.6700000055134296e-04 0.0000000000000000e+00  4.4140000827610493e-03 3.3539999276399612e-03 0.0000000000000000e+00  3.0980000738054514e-03 2.4870000779628754e-03 0.0000000000000000e+00  3.5900000948458910e-03 2.7870000340044498e-03 0.0000000000000000e+00  3.8310000672936440e-03 3.0110001098364592e-03 0.0000000000000000e+00  2.8909998945891857e-03 2.3749999236315489e-03 0.0000000000000000e+00  3.7889999803155661e-03 2.9390000272542238e-03 0.0000000000000000e+00  4.0224000811576843e-02 7.5847998261451721e-02 0.0000000000000000e+00  3.9103999733924866e-02 7.5488999485969543e-02 0.0000000000000000e+00  -4.5329998247325420e-03 1.5109999803826213e-03 0.0000000000000000e+00  -2.4459999985992908e-03 5.2441999316215515e-02 0.0000000000000000e+00  -2.8190000448375940e-03 4.7419998794794083e-02 0.0000000000000000e+00  -8.3799995481967926e-03 4.7061998397111893e-02 0.0000000000000000e+00  -1.0867799818515778e-01 -7.7146999537944794e-02 0.0000000000000000e+00  -1.1706200242042542e-01 -6.6509999334812164e-02 0.0000000000000000e+00  -1.0676799714565277e-01 -6.6255003213882446e-02 0.0000000000000000e+00  -1.0951100289821625e-01 -8.6530998349189758e-02 0.0000000000000000e+00  -1.2117400020360947e-01 -7.4919000267982483e-02 0.0000000000000000e+00  -3.8104001432657242e-02 -9.3079000711441040e-02 0.0000000000000000e+00  -4.4992998242378235e-02 -1.0595399886369705e-01 0.0000000000000000e+00  -3.9868999272584915e-02 -9.1606996953487396e-02 0.0000000000000000e+00  -4.7097001224756241e-02 -1.0393200069665909e-01 0.0000000000000000e+00  1.1997999623417854e-02 2.6917999610304832e-02 0.0000000000000000e+00  1.1969000101089478e-02 2.7966000139713287e-02 0.0000000000000000e+00  1.0877000167965889e-02 2.4755999445915222e-02 0.0000000000000000e+00  -3.0219999607652426e-03 -6.0439999215304852e-03 0.0000000000000000e+00  6.0319998301565647e-03 1.3144999742507935e-02 0.0000000000000000e+00  -3.3080000430345535e-03 -6.8000000901520252e-03 0.0000000000000000e+00  -2.7689998969435692e-03 -6.8000000901520252e-03 0.0000000000000000e+00  -1.4477999880909920e-02 -4.1462998837232590e-02 0.0000000000000000e+00  -1.9432999193668365e-02 -5.4140999913215637e-02 0.0000000000000000e+00  -1.4692000113427639e-02 -4.1538998484611511e-02 0.0000000000000000e+00  -9.9820001050829887e-03 -2.9470000416040421e-02 0.0000000000000000e+00  -1.5362000092864037e-02 -4.1140999644994736e-02 0.0000000000000000e+00  -1.0715999640524387e-02 -2.8552999719977379e-02 0.0000000000000000e+00  3.8290000520646572e-03 5.3099999204277992e-03 0.0000000000000000e+00  6.0209999792277813e-03 1.0359000414609909e-02 0.0000000000000000e+00  6.5879998728632927e-03 1.2663999572396278e-02 0.0000000000000000e+00  -2.0600000862032175e-03 -8.5260001942515373e-03 0.0000000000000000e+00  1.2140000471845269e-03 2.6199998683296144e-04 0.0000000000000000e+00  -2.0439999643713236e-03 -7.6640001498162746e-03 0.0000000000000000e+00  -1.3082399964332581e-01 -1.3056500256061554e-01 0.0000000000000000e+00  -1.2955799698829651e-01 -1.1799500137567520e-01 0.0000000000000000e+00  -1.3588200509548187e-01 -1.2902900576591492e-01 0.0000000000000000e+00  -3.2543998211622238e-02 -1.2307400256395340e-01 0.0000000000000000e+00  -1.8953999504446983e-02 -1.0811699926853180e-01 0.0000000000000000e+00  -2.7115000411868095e-02 -1.0621099919080734e-01 0.0000000000000000e+00  1.5109999803826213e-03 -1.5109999803826213e-03 0.0000000000000000e+00  1.7419999931007624e-03 -1.5109999803826213e-03 0.0000000000000000e+00  1.2690000003203750e-03 -1.2690000003203750e-03 0.0000000000000000e+00  1.0169999441131949e-03 -1.0169999441131949e-03 0.0000000000000000e+00  7.5599999399855733e-04 -7.5599999399855733e-04 0.0000000000000000e+00  7.0500001311302185e-04 7.0400000549852848e-04 0.0000000000000000e+00  7.5599999399855733e-04 -7.5599999399855733e-04 0.0000000000000000e+00  5.3399999160319567e-04 7.0899998536333442e-04 0.0000000000000000e+00  1.3770000077784061e-03 1.4440000522881746e-03 0.0000000000000000e+00  4.9599999329075217e-04 9.7300001652911305e-04 0.0000000000000000e+00  4.6040001325309277e-03 4.1800001636147499e-03 0.0000000000000000e+00  3.4070000983774662e-03 3.0590000096708536e-03 0.0000000000000000e+00  3.3380000386387110e-03 3.4070000983774662e-03 0.0000000000000000e+00  2.3050000891089439e-03 2.7830000035464764e-03 0.0000000000000000e+00  3.0519999563694000e-03 3.7080000620335340e-03 0.0000000000000000e+00  2.2579999640583992e-03 2.3330000694841146e-03 0.0000000000000000e+00  4.8150001093745232e-03 3.9169997908174992e-03 0.0000000000000000e+00  3.6319999489933252e-03 2.8240000829100609e-03 0.0000000000000000e+00  4.8719998449087143e-03 3.6369999870657921e-03 0.0000000000000000e+00  4.9660000950098038e-03 3.7909999955445528e-03 0.0000000000000000e+00  1.6339999856427312e-03 2.9800001066178083e-03 0.0000000000000000e+00  4.9020000733435154e-03 9.6840001642704010e-03 0.0000000000000000e+00  4.9809999763965607e-03 9.4609996303915977e-03 0.0000000000000000e+00  6.3140001147985458e-03 1.1580999940633774e-02 0.0000000000000000e+00  1.1211999692022800e-02 5.5840001441538334e-03 0.0000000000000000e+00  1.2419999577105045e-02 7.2490000165998936e-03 0.0000000000000000e+00  1.0274999774992466e-02 9.4020003452897072e-03 0.0000000000000000e+00  1.2979999883100390e-03 2.3030000738799572e-03 0.0000000000000000e+00  -3.2379999756813049e-03 -5.9119998477399349e-03 0.0000000000000000e+00  -2.9770000837743282e-03 -2.2470001131296158e-03 0.0000000000000000e+00  -5.8709997683763504e-03 -5.5639999918639660e-03 0.0000000000000000e+00  1.9910000264644623e-03 -1.5109999803826213e-03 0.0000000000000000e+00  2.2670000325888395e-03 -1.5109999803826213e-03 0.0000000000000000e+00  2.1770000457763672e-02 6.2726996839046478e-02 0.0000000000000000e+00  2.2098999470472336e-02 5.8485999703407288e-02 0.0000000000000000e+00  1.8982000648975372e-02 5.9087000787258148e-02 0.0000000000000000e+00  1.8200000748038292e-02 6.3429996371269226e-02 0.0000000000000000e+00  9.9569000303745270e-02 6.3495002686977386e-02 0.0000000000000000e+00  9.5611996948719025e-02 7.4376001954078674e-02 0.0000000000000000e+00  9.5926001667976379e-02 7.1773000061511993e-02 0.0000000000000000e+00  1.3120999559760094e-02 2.0592000335454941e-02 0.0000000000000000e+00  -5.5660000070929527e-03 -2.7799999224953353e-04 0.0000000000000000e+00  -5.8120000176131725e-03 -5.2300002425909042e-04 0.0000000000000000e+00  1.6217000782489777e-02 3.2274998724460602e-02 0.0000000000000000e+00  -6.8000000901520252e-03 -2.5309999473392963e-03 0.0000000000000000e+00  -6.8000000901520252e-03 -2.7679998893290758e-03 0.0000000000000000e+00  2.3269999772310257e-02 5.5697001516819000e-02 0.0000000000000000e+00  2.8772000223398209e-02 6.2720000743865967e-02 0.0000000000000000e+00  2.3974999785423279e-02 5.3022999316453934e-02 0.0000000000000000e+00  2.6623999699950218e-02 4.9268998205661774e-02 0.0000000000000000e+00  1.9805999472737312e-02 4.3035000562667847e-02 0.0000000000000000e+00  3.1502000987529755e-02 5.9080999344587326e-02 0.0000000000000000e+00  3.5100001841783524e-02 6.9190002977848053e-02 0.0000000000000000e+00  3.3236000686883926e-02 5.6311998516321182e-02 0.0000000000000000e+00  3.4173000603914261e-02 5.4519001394510269e-02 0.0000000000000000e+00  3.9636000990867615e-02 6.3046999275684357e-02 0.0000000000000000e+00  4.0711000561714172e-02 6.0897000133991241e-02 0.0000000000000000e+00  7.0500001311302185e-03 6.4438000321388245e-02 0.0000000000000000e+00  5.5499998852610588e-03 6.7933999001979828e-02 0.0000000000000000e+00  1.2407000176608562e-02 7.0286996662616730e-02 0.0000000000000000e+00  1.1797999963164330e-02 7.3991000652313232e-02 0.0000000000000000e+00  1.2769999448210001e-03 -1.7450000159442425e-03 0.0000000000000000e+00  1.0239999974146485e-03 -1.9980000797659159e-03 0.0000000000000000e+00  2.1919999271631241e-03 2.6900001103058457e-04 0.0000000000000000e+00  3.6859998945146799e-03 1.3510000426322222e-03 0.0000000000000000e+00  4.6112000942230225e-02 6.9099001586437225e-02 0.0000000000000000e+00  7.1868002414703369e-02 8.7134003639221191e-02 0.0000000000000000e+00  7.5039997696876526e-02 9.0268000960350037e-02 0.0000000000000000e+00  7.6766997575759888e-02 8.5304997861385345e-02 0.0000000000000000e+00  7.0102997124195099e-02 9.1794997453689575e-02 0.0000000000000000e+00  3.3385999500751495e-02 7.1759998798370361e-02 0.0000000000000000e+00  2.2847000509500504e-02 1.2885999865829945e-02 0.0000000000000000e+00  2.5115000084042549e-02 1.3403999619185925e-02 0.0000000000000000e+00  1.9677000120282173e-02 1.0625000111758709e-02 0.0000000000000000e+00  6.2359001487493515e-02 1.9209999591112137e-02 0.0000000000000000e+00  6.2669999897480011e-02 1.6431000083684921e-02 0.0000000000000000e+00  5.8338999748229980e-02 1.7593000084161758e-02 0.0000000000000000e+00  5.8935999870300293e-02 1.5212000347673893e-02 0.0000000000000000e+00  6.2813997268676758e-02 1.3732000254094601e-02 0.0000000000000000e+00  5.5284000933170319e-02 1.4205999672412872e-02 0.0000000000000000e+00  5.4678000509738922e-02 1.6069000586867332e-02 0.0000000000000000e+00  6.7432999610900879e-02 1.7605999484658241e-02 0.0000000000000000e+00  3.5220000427216291e-03 -4.5329998247325420e-03 0.0000000000000000e+00  -6.7110001109540462e-03 -1.5693999826908112e-02 0.0000000000000000e+00  3.2879998907446861e-03 -4.5329998247325420e-03 0.0000000000000000e+00  -7.2130002081394196e-03 -2.2986000403761864e-02 0.0000000000000000e+00  -7.5190002098679543e-03 -2.4173999205231667e-02 0.0000000000000000e+00  -1.0153000243008137e-02 -3.4044999629259109e-02 0.0000000000000000e+00  -8.5209999233484268e-03 -2.6692999526858330e-02 0.0000000000000000e+00  -1.1415000073611736e-02 -4.2576998472213745e-02 0.0000000000000000e+00  -1.3330000452697277e-02 -4.4739998877048492e-02 0.0000000000000000e+00  -1.1009999550879002e-02 -3.6185000091791153e-02 0.0000000000000000e+00  3.7779998965561390e-03 -4.5329998247325420e-03 0.0000000000000000e+00  -3.4391999244689941e-02 -1.3539000414311886e-02 0.0000000000000000e+00  -2.5062000378966331e-02 -6.7429998889565468e-03 0.0000000000000000e+00  1.1195999570190907e-02 2.8178000822663307e-02 0.0000000000000000e+00  1.3586999848484993e-02 3.1991001218557358e-02 0.0000000000000000e+00  8.6329998448491096e-03 2.8666999191045761e-02 0.0000000000000000e+00  1.1695999652147293e-02 3.1417999416589737e-02 0.0000000000000000e+00  8.2149999216198921e-03 2.8765000402927399e-02 0.0000000000000000e+00  1.0963999666273594e-02 2.5970000773668289e-02 0.0000000000000000e+00  9.0650003403425217e-03 2.0895000547170639e-02 0.0000000000000000e+00  9.0269995853304863e-03 1.9788000732660294e-02 0.0000000000000000e+00  -6.2944002449512482e-02 -4.4801000505685806e-02 0.0000000000000000e+00  -1.0497900098562241e-01 -1.2425100058317184e-01 0.0000000000000000e+00  -1.1069999635219574e-01 -1.3452999293804169e-01 0.0000000000000000e+00  -1.1014100164175034e-01 -1.2447399646043777e-01 0.0000000000000000e+00  -1.1480700224637985e-01 -1.2476500123739243e-01 0.0000000000000000e+00  -1.1648499965667725e-01 -1.3506899774074554e-01 0.0000000000000000e+00  -7.2017997503280640e-02 -9.7243003547191620e-02 0.0000000000000000e+00  -6.5523996949195862e-02 -9.8976001143455505e-02 0.0000000000000000e+00  -7.2838999330997467e-02 -1.0840000212192535e-01 0.0000000000000000e+00  -7.9561002552509308e-02 -1.1751600354909897e-01 0.0000000000000000e+00  -7.2190001606941223e-02 -1.1879800260066986e-01 0.0000000000000000e+00  -4.3751999735832214e-02 -3.8485001772642136e-02 0.0000000000000000e+00  -5.2122998982667923e-02 -5.0921000540256500e-02 0.0000000000000000e+00  -4.3533001095056534e-02 -4.1859000921249390e-02 0.0000000000000000e+00  -3.3902999013662338e-02 -3.2504998147487640e-02 0.0000000000000000e+00  -1.0038999840617180e-02 -2.8152000159025192e-02 0.0000000000000000e+00  -7.5349998660385609e-03 -1.4457000419497490e-02 0.0000000000000000e+00  -8.2259997725486755e-03 -1.4139000326395035e-02 0.0000000000000000e+00  2.0769999828189611e-03 0.0000000000000000e+00 0.0000000000000000e+00  2.2670000325888395e-03 0.0000000000000000e+00 0.0000000000000000e+00  2.4429999757558107e-03 -1.7600000137463212e-04 0.0000000000000000e+00  2.6320000179111958e-03 -3.6599999293684959e-04 0.0000000000000000e+00  -3.1699999817647040e-04 -1.9099999917671084e-04 0.0000000000000000e+00  9.2999998014420271e-04 7.9199997708201408e-04 0.0000000000000000e+00  1.7920000245794654e-03 1.4479999663308263e-03 0.0000000000000000e+00  3.4599998616613448e-04 3.1500001205131412e-04 0.0000000000000000e+00  1.6909999540075660e-03 0.0000000000000000e+00 0.0000000000000000e+00  7.5599999399855733e-04 -2.3900000087451190e-04 0.0000000000000000e+00  8.4499997319653630e-04 7.6199998147785664e-04 0.0000000000000000e+00  7.5599999399855733e-04 0.0000000000000000e+00 0.0000000000000000e+00  7.5599999399855733e-04 -4.8399998922832310e-04 0.0000000000000000e+00  2.5299999397248030e-03 2.0439999643713236e-03 0.0000000000000000e+00  5.0499998033046722e-03 3.7569999694824219e-03 0.0000000000000000e+00  6.0160001739859581e-03 4.2980001308023930e-03 0.0000000000000000e+00  4.3979999609291553e-03 3.2399999909102917e-03 0.0000000000000000e+00  3.3700000494718552e-03 7.0500001311302185e-03 0.0000000000000000e+00  3.8759999442845583e-03 6.9820000790059566e-03 0.0000000000000000e+00  2.1989999804645777e-03 4.0119998157024384e-03 0.0000000000000000e+00  4.2900000698864460e-03 4.5070000924170017e-03 0.0000000000000000e+00  6.3379998318850994e-03 7.0609999820590019e-03 0.0000000000000000e+00  7.2860000655055046e-03 8.3130002021789551e-03 0.0000000000000000e+00  8.3699999377131462e-03 8.5869999602437019e-03 0.0000000000000000e+00  5.3229997865855694e-03 6.4530000090599060e-03 0.0000000000000000e+00  4.5989998616278172e-03 5.6289997883141041e-03 0.0000000000000000e+00  8.0540003255009651e-03 9.4020003452897072e-03 0.0000000000000000e+00  8.6190002039074898e-03 1.0307000018656254e-02 0.0000000000000000e+00  1.0100999847054482e-02 1.1401000432670116e-02 0.0000000000000000e+00  1.0688000358641148e-02 5.2034001797437668e-02 0.0000000000000000e+00  9.3989996239542961e-03 4.5412998646497726e-02 0.0000000000000000e+00  5.8450000360608101e-03 4.6413999050855637e-02 0.0000000000000000e+00  2.9015000909566879e-02 8.1496998667716980e-02 0.0000000000000000e+00  2.4049999192357063e-02 7.7114000916481018e-02 0.0000000000000000e+00  2.4142999202013016e-02 8.1015996634960175e-02 0.0000000000000000e+00  4.8893999308347702e-02 1.0952299833297729e-01 0.0000000000000000e+00  4.7972999513149261e-02 1.1462400108575821e-01 0.0000000000000000e+00  4.9959000200033188e-02 1.1418399959802628e-01 0.0000000000000000e+00  -4.5329998247325420e-03 1.5109999803826213e-03 0.0000000000000000e+00  -2.0632000640034676e-02 4.3963000178337097e-02 0.0000000000000000e+00  -2.7044000104069710e-02 4.1682001203298569e-02 0.0000000000000000e+00  -1.9825000315904617e-02 4.9876000732183456e-02 0.0000000000000000e+00  -1.3005999848246574e-02 5.2363000810146332e-02 0.0000000000000000e+00  -1.6302999109029770e-02 4.5347001403570175e-02 0.0000000000000000e+00  -1.2089000083506107e-02 4.6590000391006470e-02 0.0000000000000000e+00  1.0665999725461006e-02 7.6922997832298279e-02 0.0000000000000000e+00  1.8278999254107475e-02 7.9628996551036835e-02 0.0000000000000000e+00  1.7485000193119049e-02 8.2539997994899750e-02 0.0000000000000000e+00  2.4558000266551971e-02 8.5077002644538879e-02 0.0000000000000000e+00  1.7460000235587358e-03 5.8155000209808350e-02 0.0000000000000000e+00  -5.9469998814165592e-03 5.4311998188495636e-02 0.0000000000000000e+00  -6.6169998608529568e-03 5.8644000440835953e-02 0.0000000000000000e+00  -1.1773999780416489e-02 5.8694999665021896e-02 0.0000000000000000e+00  -1.3163999654352665e-02 6.2364999204874039e-02 0.0000000000000000e+00  -5.0829998217523098e-03 6.6418997943401337e-02 0.0000000000000000e+00  1.2099999730708078e-04 6.1549998819828033e-02 0.0000000000000000e+00  -1.0931400209665298e-01 -1.0417900234460831e-01 0.0000000000000000e+00  -1.0735800117254257e-01 -1.1087100207805634e-01 0.0000000000000000e+00  -1.1943999677896500e-01 -1.0429999977350235e-01 0.0000000000000000e+00  -1.2944899499416351e-01 -7.8161999583244324e-02 0.0000000000000000e+00  -1.1815000325441360e-01 -8.5303999483585358e-02 0.0000000000000000e+00  -1.2374299764633179e-01 -8.9424997568130493e-02 0.0000000000000000e+00  -1.0964900255203247e-01 -9.5522999763488770e-02 0.0000000000000000e+00  -2.5630999356508255e-02 -6.7284002900123596e-02 0.0000000000000000e+00  -2.0797999575734138e-02 -5.4202999919652939e-02 0.0000000000000000e+00  -2.0034000277519226e-02 -5.4363001137971878e-02 0.0000000000000000e+00  -2.4885000661015511e-02 -6.7570999264717102e-02 0.0000000000000000e+00  -4.3260999023914337e-02 -1.0735499858856201e-01 0.0000000000000000e+00  -8.3545997738838196e-02 -1.4694200456142426e-01 0.0000000000000000e+00  -7.8532002866268158e-02 -1.5026299655437469e-01 0.0000000000000000e+00  -8.8830001652240753e-02 -1.5911200642585754e-01 0.00000000