<?xml version="1.0"?>
<VTKFile type="UnstructuredGrid"  version="0.1"  >
<UnstructuredGrid>
<Piece  NumberOfPoints="6340" NumberOfCells="12376">
<Points>
<DataArray  type="Float64"  NumberOfComponents="3"  format="ascii">-0.01913299970328808 0.02065199986100197 0  -0.01971600018441677 0.02125399932265282 0  -0.01995999924838543 0.02029000036418438 0  -0.02040600031614304 0.02094700001180172 0  -0.01937500014901161 0.01973900012671947 0  -0.01895700022578239 0.02151899971067905 0  -0.01936900056898594 0.02220400050282478 0  -0.01892299950122833 0.02303100004792213 0  -0.01974100060760975 0.02287100069224834 0  -0.01851800084114075 0.02225000038743019 0  -0.00901500042527914 0.01761200092732906 0  -0.009616999886929989 0.01853000000119209 0  -0.009952000342309475 0.01759199984371662 0  -0.01056000031530857 0.01854999922215939 0  -0.02390100061893463 0.0703589990735054 0  -0.02478899993002415 0.07059600204229355 0  -0.02492900006473064 0.06984300166368484 0  -0.02408299967646599 0.0642160028219223 0  -0.02471599914133549 0.06478100270032883 0  -0.02484999969601631 0.06391800194978714 0  -0.02556999959051609 0.06419999897480011 0  -0.01188900042325258 0.08282099664211273 0  -0.0127130001783371 0.08258400112390518 0  -0.01215299963951111 0.08208499848842621 0  -0.01840200088918209 0.0767579972743988 0  -0.01747800037264824 0.07705400139093399 0  -0.01796500012278557 0.07760199904441833 0  -0.01792100071907043 0.07620099931955338 0  -0.02113099955022335 0.02402699925005436 0  -0.02037899941205978 0.02427400089800358 0  -0.02065999992191792 0.02492599934339523 0  -0.02090499922633171 0.02559100091457367 0  -0.0214259997010231 0.02468499913811684 0  -0.0198999997228384 0.02517900057137012 0  -0.01959799975156784 0.02445000037550926 0  -0.01880400069057941 0.02460400015115738 0  -0.0191200003027916 0.02533799968659878 0  -0.02084599994122982 0.02335800044238567 0  -0.02166599966585636 0.02314399927854538 0  -0.02122999913990498 0.0221599992364645 0  -0.02082999981939793 0.02157099917531013 0  -0.02053499966859818 0.02263100072741508 0  -0.02012399956583977 0.0219500008970499 0  -0.01614500023424625 0.02202400006353855 0  -0.01663599908351898 0.02114599943161011 0  -0.01573999971151352 0.02112999930977821 0  -0.01697099953889847 0.0221330001950264 0  -0.01778800040483475 0.02209999971091747 0  -0.01732099987566471 0.02298600040376186 0  0.04001599922776222 0.07597299665212631 0  0.03978399932384491 0.07509800046682358 0  0.04100000113248825 0.07515700161457062 0  0.04178300127387047 0.08618900179862976 0  0.04250900074839592 0.08640100061893463 0  0.04143299907445908 0.0868540033698082 0  0.02411499992012978 0.09413599967956543 0  0.02433500066399574 0.09345299750566483 0  0.02517499960958958 0.09369099885225296 0  0.02314200066030025 0.09454499930143356 0  0.02336600050330162 0.09372100234031677 0  -0.007722999900579453 0.09068299829959869 0  -0.006934999953955412 0.09097900241613388 0  -0.007534999866038561 0.09145800024271011 0  -0.006732999812811613 0.09175900369882584 0  -0.01752899959683418 0.08894599974155426 0  -0.01779099926352501 0.08832000195980072 0  -0.01686299964785576 0.08864499628543854 0  -0.01838899962604046 0.08887699991464615 0  -0.01514100003987551 0.09434200078248978 0  -0.0154600003734231 0.09497000277042389 0  -0.0158270001411438 0.09427200257778168 0  -0.01083900034427643 0.08899399638175964 0  -0.01009699981659651 0.08921699970960617 0  -0.01069100014865398 0.08970499783754349 0  -0.01159300003200769 0.0887800008058548 0  -0.01099899969995022 0.08829300105571747 0  -0.01175300031900406 0.08807899802923203 0  -0.01412099972367287 0.0899910032749176 0  -0.01467700023204088 0.09046199917793274 0  -0.01491499971598387 0.08975800126791 0  -0.01294500008225441 0.08904600143432617 0  -0.01372999977320433 0.08882799744606018 0  -0.01312899962067604 0.08834899961948395 0  0.01058899983763695 0.08885999768972397 0  0.01158799976110458 0.08875700086355209 0  0.01096099987626076 0.08941899985074997 0  0.007536999881267548 0.07781600207090378 0  0.008062000386416912 0.07699500024318695 0  0.008534999564290047 0.07771199941635132 0  -0.00877000018954277 0.01669000089168549 0  -0.008009999990463257 0.01684599928557873 0  -0.009581999853253365 0.01663199998438358 0  -0.01042999979108572 0.01657200045883656 0  -0.0138100003823638 0.01675000041723251 0  -0.01399699971079826 0.01786600053310394 0  -0.01458299998193979 0.01698900014162064 0  -0.01325600035488605 0.01763200014829636 0  -0.0132449995726347 0.01868399977684021 0  -0.01249200012534857 0.01775900088250637 0  -0.01271099969744682 0.0216400008648634 0  -0.01318600028753281 0.02069300040602684 0  -0.01232799980789423 0.02068199962377548 0  -0.01192700024694204 0.0197759997099638 0  -0.01138999965041876 0.02060100063681602 0  -0.01280799973756075 0.01969500072300434 0  -0.01357000041753054 0.02170399948954582 0  -0.01489599980413914 0.02098999917507172 0  -0.01527700014412403 0.02196500077843666 0  -0.01443000044673681 0.02183800004422665 0  -0.01005300041288137 0.01948099955916405 0  -0.01135800033807755 0.03073599934577942 0  -0.01185000035911798 0.02987799979746342 0  -0.01095299981534481 0.02977300062775612 0  -0.006364000029861927 0.02912599965929985 0  -0.006794000044465065 0.03011799976229668 0  -0.007290999870747328 0.02927099913358688 0  -0.00915099959820509 0.01947600021958351 0  -0.006868999917060137 0.01871100068092346 0  -0.007776000071316957 0.01862699910998344 0  -0.007085999939590693 0.01785999909043312 0  -0.007189000025391579 0.01701400056481361 0  -0.006279999855905771 0.01720000058412552 0  0.04392699897289276 0.08294299989938736 0  0.04472700133919716 0.08230900019407272 0  0.04449500143527985 0.08351299911737442 0  0.04348300024867058 0.08376500010490417 0  0.01436700019985437 0.0571569986641407 0  0.01535800006240606 0.05687500163912773 0  0.01497799996286631 0.0578330010175705 0  0.02623699977993965 0.04005600139498711 0  0.02660199999809265 0.03894799947738647 0  0.02712400071322918 0.03956500068306923 0  0.02870099991559982 0.04371099919080734 0  0.02952799946069717 0.04288500174880028 0  0.02992900088429451 0.04354299977421761 0  0.02876299992203712 0.0471160002052784 0  0.02785200066864491 0.0473640002310276 0  0.02828600071370602 0.04635600000619888 0  0.02778499945998192 0.04564300179481506 0  0.02876099944114685 0.04534300044178963 0  0.02733599953353405 0.04664099961519241 0  0.02690999954938889 0.0476359985768795 0  0.02679399959743023 0.04596100002527237 0  0.02619300037622452 0.04532000049948692 0  0.02579499967396259 0.04626800119876862 0  0.02517900057137012 0.04562199860811234 0  0.04129499942064285 0.08507800102233887 0  0.04025999829173088 0.08518700301647186 0  0.04089799895882607 0.08453299850225449 0  0.0398860014975071 0.08461800217628479 0  0.005373999942094088 0.02273399941623211 0  0.006035000085830688 0.02315800078213215 0  0.005423000082373619 0.02383399941027164 0  0.006138000171631575 0.02414499968290329 0  0.02479100041091442 0.04656999930739403 0  0.0210219994187355 0.04933900013566017 0  0.02063900046050549 0.05029299855232239 0  0.02002199925482273 0.04962100088596344 0  0.02163399942219257 0.05001100152730942 0  0.02745000086724758 0.0483580008149147 0  0.01537500042468309 0.03330500051379204 0  0.0145669998601079 0.03324500098824501 0  0.01489899959415197 0.03229799866676331 0  0.01071000006049871 0.03912600129842758 0  0.009883999824523926 0.03918600082397461 0  0.0102530000731349 0.03824299946427345 0  0.009428000077605247 0.03830400109291077 0  0.009058999828994274 0.03924600034952164 0  0.008973999880254269 0.03741899877786636 0  0.009797000326216221 0.03736099973320961 0  0.01034099981188774 0.04007000103592873 0  -0.02550899982452393 0.0650160014629364 0  -0.02450099959969521 0.06559500098228455 0  -0.0254529993981123 0.065761998295784 0  -0.02381899952888489 0.06510999798774719 0  -0.02350899949669838 0.06595300137996674 0  -0.02254899963736534 0.06630399823188782 0  -0.02304599992930889 0.06687299907207489 0  -0.02196099981665611 0.0657690018415451 0  -0.02160700038075447 0.06663700193166733 0  -0.02213899977505207 0.06719599664211273 0  -0.02559399977326393 0.06335899978876114 0  -0.01753400079905987 0.07843399792909622 0  -0.01844899915158749 0.07814899832010269 0  -0.01750499941408634 0.08580700308084488 0  -0.01833399944007397 0.08560299873352051 0  -0.0177609995007515 0.08510100096464157 0  -0.01858700066804886 0.08490099757909775 0  -0.01802000030875206 0.08438900113105774 0  -0.01692000031471252 0.08799900114536285 0  -0.01614000089466572 0.0882050022482872 0  -0.01600899919867516 0.08887100219726562 0  -0.01298999972641468 0.081836998462677 0  -0.01050200033932924 0.07717099785804749 0  -0.009583000093698502 0.07746700197458267 0  -0.01008099969476461 0.07800500094890594 0  -0.009703000076115131 0.07880999892950058 0  -0.009186999872326851 0.07828400284051895 0  -0.01420699991285801 0.07448799908161163 0  -0.01466399990022182 0.07358500361442566 0  -0.01373699959367514 0.07389900088310242 0  -0.01281000021845102 0.07421199977397919 0  -0.01325399987399578 0.07331100106239319 0  -0.01699399948120117 0.07650300115346909 0  -0.01652799919247627 0.07592900097370148 0  -0.01745999976992607 0.07561899721622467 0  -0.01839400082826614 0.07531200349330902 0  -0.02269900031387806 0.06775499880313873 0  -0.02330599911510944 0.06981500238180161 0  -0.02293200045824051 0.07068900018930435 0  -0.02189699932932854 0.02366499975323677 0  -0.02212000079452991 0.02417000010609627 0  -0.02226000092923641 0.02465499937534332 0  -0.02240999974310398 0.02517700009047985 0  -0.02163900062441826 0.02537900023162365 0  -0.01927199959754944 0.02373399958014488 0  -0.0184710007160902 0.02387800067663193 0  -0.02007799968123436 0.02355900034308434 0  -0.02144099958240986 0.02263800054788589 0  -0.01759899966418743 0.01830700039863586 0  -0.01723000034689903 0.01906999945640564 0  -0.01826000027358532 0.01868999935686588 0  -0.01692000031471252 0.01791400089859962 0  -0.01809299923479557 0.02305700071156025 0  
[...]
<PointData  Vectors="velocity"> 
<DataArray  type="Float64"  Name="velocity"  NumberOfComponents="3" format="ascii">4.7450000420212746e-03 4.3959999457001686e-03 0.0000000000000000e+00  5.1629999652504921e-03 4.7889999113976955e-03 0.0000000000000000e+00  2.2670000325888395e-03 -7.5599999399855733e-04 0.0000000000000000e+00  2.0010001026093960e-03 -1.2860000133514404e-03 0.0000000000000000e+00  2.2670000325888395e-03 -4.9499998567625880e-04 0.0000000000000000e+00  9.6739996224641800e-03 8.5209999233484268e-03 0.0000000000000000e+00  1.1405999772250652e-02 9.9480003118515015e-03 0.0000000000000000e+00  1.7998000606894493e-02 1.4785000123083591e-02 0.0000000000000000e+00  1.2211999855935574e-02 1.0540000163018703e-02 0.0000000000000000e+00  1.5625000000000000e-02 1.3000000268220901e-02 0.0000000000000000e+00  5.6819999590516090e-03 3.2430000137537718e-03 0.0000000000000000e+00  9.9400002509355545e-03 5.4069999605417252e-03 0.0000000000000000e+00  5.4279998876154423e-03 3.0970000661909580e-03 0.0000000000000000e+00  9.1230003163218498e-03 5.1799998618662357e-03 0.0000000000000000e+00  -5.9230001643300056e-03 -3.0656000599265099e-02 0.0000000000000000e+00  -1.2577000074088573e-02 -3.0219999607652426e-03 0.0000000000000000e+00  -1.2342000380158424e-02 -3.0219999607652426e-03 0.0000000000000000e+00  4.6300000394694507e-04 -3.0657000839710236e-02 0.0000000000000000e+00  -1.4009999576956034e-03 -2.6771999895572662e-02 0.0000000000000000e+00  -1.1470000026747584e-03 -2.5791000574827194e-02 0.0000000000000000e+00  -1.1332999914884567e-02 -4.5329998247325420e-03 0.0000000000000000e+00  -2.8218999505043030e-02 -6.1136998236179352e-02 0.0000000000000000e+00  -2.7684999629855156e-02 -5.8308001607656479e-02 0.0000000000000000e+00  -2.8102999553084373e-02 -6.0258001089096069e-02 0.0000000000000000e+00  -1.9269000738859177e-02 -4.7347001731395721e-02 0.0000000000000000e+00  -2.1270999684929848e-02 -5.0501000136137009e-02 0.0000000000000000e+00  -2.0749000832438469e-02 -4.7015000134706497e-02 0.0000000000000000e+00  -1.9938999786973000e-02 -5.1073998212814331e-02 0.0000000000000000e+00  5.8149998076260090e-03 5.1159998401999474e-03 0.0000000000000000e+00  1.0520000010728836e-02 8.8349999859929085e-03 0.0000000000000000e+00  1.0623999871313572e-02 8.8120000436902046e-03 0.0000000000000000e+00  8.7710004299879074e-03 7.1789999492466450e-03 0.0000000000000000e+00  5.3070001304149628e-03 4.6109999530017376e-03 0.0000000000000000e+00  1.6047000885009766e-02 1.2690999545156956e-02 0.0000000000000000e+00  1.5876000747084618e-02 1.2728000059723854e-02 0.0000000000000000e+00  2.2057000547647476e-02 1.6854999586939812e-02 0.0000000000000000e+00  2.1510999649763107e-02 1.6239000484347343e-02 0.0000000000000000e+00  5.0260000862181187e-03 4.4860001653432846e-03 0.0000000000000000e+00  7.7099999180063605e-04 -2.6360000483691692e-03 0.0000000000000000e+00  1.5109999803826213e-03 -2.2670000325888395e-03 0.0000000000000000e+00  1.7490000464022160e-03 -1.7900000093504786e-03 0.0000000000000000e+00  5.9770001098513603e-03 5.4239998571574688e-03 0.0000000000000000e+00  6.5290001221001148e-03 5.9859999455511570e-03 0.0000000000000000e+00  2.2797999903559685e-02 1.6673000529408455e-02 0.0000000000000000e+00  1.5789000317454338e-02 1.2400000356137753e-02 0.0000000000000000e+00  1.8166000023484230e-02 1.3487000018358231e-02 0.0000000000000000e+00  2.0953999832272530e-02 1.6046000644564629e-02 0.0000000000000000e+00  1.7741000279784203e-02 1.4270000159740448e-02 0.0000000000000000e+00  2.5506999343633652e-02 1.9202999770641327e-02 0.0000000000000000e+00  8.3938002586364746e-02 1.4457899332046509e-01 0.0000000000000000e+00  7.7682003378868103e-02 1.4048500359058380e-01 0.0000000000000000e+00  -1.2051999568939209e-02 1.5589999966323376e-02 0.0000000000000000e+00  1.2148900330066681e-01 1.9630800187587738e-01 0.0000000000000000e+00  1.1587399989366531e-01 1.8482799828052521e-01 0.0000000000000000e+00  1.2319000065326691e-01 2.0531700551509857e-01 0.0000000000000000e+00  -1.3744000345468521e-02 1.2123499810695648e-01 0.0000000000000000e+00  -1.1109999613836408e-03 1.3239799439907074e-01 0.0000000000000000e+00  4.1999999666586518e-05 1.3796199858188629e-01 0.0000000000000000e+00  -2.6078000664710999e-02 1.0548000037670135e-01 0.0000000000000000e+00  -1.1653999797999859e-02 1.1879000067710876e-01 0.0000000000000000e+00  -3.7698999047279358e-02 -7.8011997044086456e-02 0.0000000000000000e+00  -4.0904998779296875e-02 -8.1414997577667236e-02 0.0000000000000000e+00  -4.1625000536441803e-02 -7.7316001057624817e-02 0.0000000000000000e+00  -4.5274998992681503e-02 -8.0752998590469360e-02 0.0000000000000000e+00  -1.4220999553799629e-02 -2.6223000138998032e-02 0.0000000000000000e+00  -1.3732000254094601e-02 -2.5916999205946922e-02 0.0000000000000000e+00  -1.5208000317215919e-02 -2.9756000265479088e-02 0.0000000000000000e+00  -2.0907999947667122e-02 -4.5329998247325420e-03 0.0000000000000000e+00  -1.7100000753998756e-02 -2.3917999118566513e-02 0.0000000000000000e+00  -2.2430000826716423e-02 -3.7779998965561390e-03 0.0000000000000000e+00  -2.2160999476909637e-02 -3.7779998965561390e-03 0.0000000000000000e+00  -2.7813000604510307e-02 -6.3427001237869263e-02 0.0000000000000000e+00  -2.9377000406384468e-02 -6.7397996783256531e-02 0.0000000000000000e+00  -2.8209999203681946e-02 -6.2965996563434601e-02 0.0000000000000000e+00  -2.6312999427318573e-02 -5.9342000633478165e-02 0.0000000000000000e+00  -2.8080999851226807e-02 -6.3592001795768738e-02 0.0000000000000000e+00  -2.6743000373244286e-02 -5.9553001075983047e-02 0.0000000000000000e+00  -2.1345000714063644e-02 -4.1802000254392624e-02 0.0000000000000000e+00  -2.0307000726461411e-02 -3.7489000707864761e-02 0.0000000000000000e+00  -1.9409000873565674e-02 -3.7882998585700989e-02 0.0000000000000000e+00  -2.2989999502897263e-02 -5.0755001604557037e-02 0.0000000000000000e+00  -2.1428000181913376e-02 -4.6503998339176178e-02 0.0000000000000000e+00  -2.3262999951839447e-02 -5.1010001450777054e-02 0.0000000000000000e+00  1.3889999827370048e-03 1.5850000083446503e-02 0.0000000000000000e+00  8.0819996073842049e-03 3.1105000525712967e-02 0.0000000000000000e+00  -6.0629998333752155e-03 1.5560000203549862e-02 0.0000000000000000e+00  1.2772899866104126e-01 6.8104997277259827e-02 0.0000000000000000e+00  1.2977699935436249e-01 7.6725997030735016e-02 0.0000000000000000e+00  1.3394199311733246e-01 7.7037997543811798e-02 0.0000000000000000e+00  3.0219999607652426e-03 3.0219999607652426e-03 0.0000000000000000e+00  3.2530000898987055e-03 3.2530000898987055e-03 0.0000000000000000e+00  3.0219999607652426e-03 2.7799999807029963e-03 0.0000000000000000e+00  3.0219999607652426e-03 2.5279999244958162e-03 0.0000000000000000e+00  2.2670000325888395e-03 2.2670000325888395e-03 0.0000000000000000e+00  3.7599999923259020e-03 2.9009999707341194e-03 0.0000000000000000e+00  2.2670000325888395e-03 2.0190000068396330e-03 0.0000000000000000e+00  3.2230000942945480e-03 2.3449999280273914e-03 0.0000000000000000e+00  7.9979998990893364e-03 5.5510001257061958e-03 0.0000000000000000e+00  4.1700000874698162e-03 2.7960001025348902e-03 0.0000000000000000e+00  2.6310000568628311e-02 1.5401000156998634e-02 0.0000000000000000e+00  1.8946999683976173e-02 1.1962999589741230e-02 0.0000000000000000e+00  2.0152999088168144e-02 1.1927000246942043e-02 0.0000000000000000e+00  1.4835000038146973e-02 8.8390000164508820e-03 0.0000000000000000e+00  2.0478999242186546e-02 1.1351999826729298e-02 0.0000000000000000e+00  1.3438999652862549e-02 8.6009996011853218e-03 0.0000000000000000e+00  2.6166999712586403e-02 1.6278000548481941e-02 0.0000000000000000e+00  1.8954999744892120e-02 1.3379000127315521e-02 0.0000000000000000e+00  2.4785999208688736e-02 1.7178999260067940e-02 0.0000000000000000e+00  2.5933999568223953e-02 1.7059000208973885e-02 0.0000000000000000e+00  1.4461999759078026e-02 7.7030002139508724e-03 0.0000000000000000e+00  6.7446000874042511e-02 4.9842000007629395e-02 0.0000000000000000e+00  7.1140997111797333e-02 4.6514999121427536e-02 0.0000000000000000e+00  7.6298996806144714e-02 5.1653001457452774e-02 0.0000000000000000e+00  8.4601998329162598e-02 6.1558999121189117e-02 0.0000000000000000e+00  8.5339002311229706e-02 6.6055998206138611e-02 0.0000000000000000e+00  8.6468003690242767e-02 6.3189998269081116e-02 0.0000000000000000e+00  1.5096000395715237e-02 7.7169998548924923e-03 0.0000000000000000e+00  1.2481999583542347e-02 6.4980001188814640e-03 0.0000000000000000e+00  1.1950000189244747e-02 6.1269998550415039e-03 0.0000000000000000e+00  7.7050002291798592e-03 4.2670001275837421e-03 0.0000000000000000e+00  3.5019998904317617e-03 3.5019998904317617e-03 0.0000000000000000e+00  3.7779998965561390e-03 3.7779998965561390e-03 0.0000000000000000e+00  9.4874002039432526e-02 1.3378499448299408e-01 0.0000000000000000e+00  8.3607003092765808e-02 1.1217799782752991e-01 0.0000000000000000e+00  9.2133998870849609e-02 1.2796899676322937e-01 0.0000000000000000e+00  1.0312899947166443e-01 1.4960899949073792e-01 0.0000000000000000e+00  8.6002998054027557e-02 1.3119000196456909e-01 0.0000000000000000e+00  9.2724002897739410e-02 1.3966999948024750e-01 0.0000000000000000e+00  7.3725998401641846e-02 1.3919100165367126e-01 0.0000000000000000e+00  2.6290999725461006e-02 2.6141000911593437e-02 0.0000000000000000e+00  1.8888000398874283e-02 1.1610000394284725e-02 0.0000000000000000e+00  1.8888000398874283e-02 1.1855999939143658e-02 0.0000000000000000e+00  3.0811000615358353e-02 4.4419001787900925e-02 0.0000000000000000e+00  1.7603000625967979e-02 1.4391999691724777e-02 0.0000000000000000e+00  1.7130000516772270e-02 1.5103000216186047e-02 0.0000000000000000e+00  5.1545999944210052e-02 8.3462998270988464e-02 0.0000000000000000e+00  6.3487000763416290e-02 9.4757996499538422e-02 0.0000000000000000e+00  5.2831999957561493e-02 7.8253999352455139e-02 0.0000000000000000e+00  5.4083000868558884e-02 7.3806002736091614e-02 0.0000000000000000e+00  4.1037999093532562e-02 6.1918001621961594e-02 0.0000000000000000e+00  6.5784998238086700e-02 8.9877001941204071e-02 0.0000000000000000e+00  7.6177000999450684e-02 1.0596799850463867e-01 0.0000000000000000e+00  6.7928999662399292e-02 8.5724003612995148e-02 0.0000000000000000e+00  7.0545002818107605e-02 8.2473002374172211e-02 0.0000000000000000e+00  8.1827998161315918e-02 9.6826002001762390e-02 0.0000000000000000e+00  8.4647998213768005e-02 9.3183003365993500e-02 0.0000000000000000e+00  1.2503600120544434e-01 1.9898800551891327e-01 0.0000000000000000e+00  1.3191899657249451e-01 2.1653699874877930e-01 0.0000000000000000e+00  1.2716099619865417e-01 2.0308299362659454e-01 0.0000000000000000e+00  1.3369899988174438e-01 2.1984399855136871e-01 0.0000000000000000e+00  1.0289999656379223e-02 5.5229999125003815e-03 0.0000000000000000e+00  1.0795000009238720e-02 5.7749999687075615e-03 0.0000000000000000e+00  2.9710000380873680e-03 4.4019999913871288e-03 0.0000000000000000e+00  3.1039998866617680e-03 4.4680000282824039e-03 0.0000000000000000e+00  9.5181003212928772e-02 1.0670600086450577e-01 0.0000000000000000e+00  1.3603800535202026e-01 1.3879999518394470e-01 0.0000000000000000e+00  1.3742500543594360e-01 1.4389400184154510e-01 0.0000000000000000e+00  1.4166599512100220e-01 1.3854999840259552e-01 0.0000000000000000e+00  1.3165099918842316e-01 1.4399400353431702e-01 0.0000000000000000e+00  7.2614997625350952e-02 1.1099100112915039e-01 0.0000000000000000e+00  3.4008000046014786e-02 2.4855000898241997e-02 0.0000000000000000e+00  3.7450000643730164e-02 2.7302000671625137e-02 0.0000000000000000e+00  2.4924999102950096e-02 2.0485000684857368e-02 0.0000000000000000e+00  1.4784799516201019e-01 7.4757002294063568e-02 0.0000000000000000e+00  1.5183199942111969e-01 7.3898002505302429e-02 0.0000000000000000e+00  1.4046700298786163e-01 7.0249997079372406e-02 0.0000000000000000e+00  1.4468400180339813e-01 6.9664001464843750e-02 0.0000000000000000e+00  1.5516099333763123e-01 7.2421997785568237e-02 0.0000000000000000e+00  1.3661700487136841e-01 6.5273001790046692e-02 0.0000000000000000e+00  1.3203300535678864e-01 6.5443001687526703e-02 0.0000000000000000e+00  1.5734900534152985e-01 7.8203998506069183e-02 0.0000000000000000e+00  -1.1587999761104584e-02 -4.2770002037286758e-03 0.0000000000000000e+00  -1.0920000495389104e-03 -2.8067000210285187e-02 0.0000000000000000e+00  -1.1822000145912170e-02 -4.0429998189210892e-03 0.0000000000000000e+00  1.7699999443721026e-04 -3.2462999224662781e-02 0.0000000000000000e+00  2.7700001373887062e-04 -3.4283000975847244e-02 0.0000000000000000e+00  1.3310000067576766e-03 -4.0578000247478485e-02 0.0000000000000000e+00  -6.2999999499879777e-05 -3.7179999053478241e-02 0.0000000000000000e+00  2.8450000099837780e-03 -4.4677998870611191e-02 0.0000000000000000e+00  2.1309999283403158e-03 -4.6551000326871872e-02 0.0000000000000000e+00  5.2300002425909042e-04 -4.2968001216650009e-02 0.0000000000000000e+00  -1.1332999914884567e-02 -4.7969999723136425e-03 0.0000000000000000e+00  -2.1146999672055244e-02 -4.6431999653577805e-02 0.0000000000000000e+00  -1.9254000857472420e-02 -4.3157998472452164e-02 0.0000000000000000e+00  -1.6036000102758408e-02 -3.0928000807762146e-02 0.0000000000000000e+00  -1.4425000175833702e-02 -2.7248000726103783e-02 0.0000000000000000e+00  -1.5991000458598137e-02 -3.0621999874711037e-02 0.0000000000000000e+00  -1.4369999989867210e-02 -2.7171000838279724e-02 0.0000000000000000e+00  -1.5851000323891640e-02 -3.0597999691963196e-02 0.0000000000000000e+00  -1.5502999536693096e-02 -3.0570000410079956e-02 0.0000000000000000e+00  -1.6801999881863594e-02 -3.4060999751091003e-02 0.0000000000000000e+00  -1.6713999211788177e-02 -3.3647000789642334e-02 0.0000000000000000e+00  -2.8155000880360603e-02 -5.7891998440027237e-02 0.0000000000000000e+00  -2.1237000823020935e-02 -5.7863999158143997e-02 0.0000000000000000e+00  -1.8595000728964806e-02 -5.5185001343488693e-02 0.0000000000000000e+00  -2.1703999489545822e-02 -5.7865001261234283e-02 0.0000000000000000e+00  -2.2191999480128288e-02 -5.8513000607490540e-02 0.0000000000000000e+00  -1.9307000562548637e-02 -5.6070998311042786e-02 0.0000000000000000e+00  -1.9601000472903252e-02 -6.2720999121665955e-02 0.0000000000000000e+00  -1.6946999356150627e-02 -6.3506998121738434e-02 0.0000000000000000e+00  -1.7520999535918236e-02 -6.2951996922492981e-02 0.0000000000000000e+00  -1.7145000398159027e-02 -6.0892999172210693e-02 0.0000000000000000e+00  -1.3939999975264072e-02 -6.1886001378297806e-02 0.0000000000000000e+00  -2.1745000034570694e-02 -5.3803998976945877e-02 0.0000000000000000e+00  -2.1683000028133392e-02 -5.6761998683214188e-02 0.0000000000000000e+00  -1.9910000264644623e-02 -5.4393000900745392e-02 0.0000000000000000e+00  -1.7869999632239342e-02 -5.1235999912023544e-02 0.0000000000000000e+00  -2.0870000589638948e-03 -3.9563998579978943e-02 0.0000000000000000e+00  -4.8279999755322933e-03 -3.4435998648405075e-02 0.0000000000000000e+00  -6.0899998061358929e-03 -3.5973999649286270e-02 0.0000000000000000e+00  3.7900000461377203e-04 -2.8319999109953642e-03 0.0000000000000000e+00  0.0000000000000000e+00 -3.0219999607652426e-03 0.0000000000000000e+00  -3.5200000274926424e-04 -3.3740000799298286e-03 0.0000000000000000e+00  -7.3099997825920582e-04 -3.7529999390244484e-03 0.0000000000000000e+00  4.3990002013742924e-03 3.7609999999403954e-03 0.0000000000000000e+00  1.7495999112725258e-02 1.4205000363290310e-02 0.0000000000000000e+00  2.4182999506592751e-02 1.8701000139117241e-02 0.0000000000000000e+00  1.0267999954521656e-02 8.7510002776980400e-03 0.0000000000000000e+00  1.1520000407472253e-03 -2.4459999985992908e-03 0.0000000000000000e+00  2.2670000325888395e-03 4.7800000174902380e-04 0.0000000000000000e+00  4.1550002060830593e-03 3.7529999390244484e-03 0.0000000000000000e+00  2.2670000325888395e-03 0.0000000000000000e+00 0.0000000000000000e+00  2.2670000325888395e-03 9.6899998607113957e-04 0.0000000000000000e+00  2.2410999983549118e-02 1.7578000202775002e-02 0.0000000000000000e+00  2.8674000874161720e-02 2.0557999610900879e-02 0.0000000000000000e+00  3.7273000925779343e-02 2.5048999115824699e-02 0.0000000000000000e+00  3.3640000969171524e-02 2.3742999881505966e-02 0.0000000000000000e+00  6.1519999057054520e-02 4.3999999761581421e-02 0.0000000000000000e+00  5.8529999107122421e-02 4.7215998172760010e-02 0.0000000000000000e+00  5.3070999681949615e-02 4.1326999664306641e-02 0.0000000000000000e+00  2.6876000687479973e-02 1.4808000065386295e-02 0.0000000000000000e+00  4.3898001313209534e-02 2.2165000438690186e-02 0.0000000000000000e+00  5.2691999822854996e-02 2.6891000568866730e-02 0.0000000000000000e+00  5.3654998540878296e-02 2.7325000613927841e-02 0.0000000000000000e+00  4.2488999664783478e-02 2.1479999646544456e-02 0.0000000000000000e+00  3.4740999341011047e-02 1.7454000189900398e-02 0.0000000000000000e+00  6.0490000993013382e-02 3.2340001314878464e-02 0.0000000000000000e+00  6.7915998399257660e-02 3.8865000009536743e-02 0.0000000000000000e+00  7.1483999490737915e-02 3.8660001009702682e-02 0.0000000000000000e+00  9.7073003649711609e-02 1.3896599411964417e-01 0.0000000000000000e+00  8.8794998824596405e-02 1.2340199947357178e-01 0.0000000000000000e+00  9.8573997616767883e-02 1.4378799498081207e-01 0.0000000000000000e+00  1.2437500059604645e-01 1.9651100039482117e-01 0.0000000000000000e+00  1.2252099812030792e-01 1.9174900650978088e-01 0.0000000000000000e+00  1.3081699609756470e-01 2.1077400445938110e-01 0.0000000000000000e+00  1.5029400587081909e-01 2.4868099391460419e-01 0.0000000000000000e+00  1.5502400696277618e-01 2.5543498992919922e-01 0.0000000000000000e+00  1.5071900188922882e-01 2.4840599298477173e-01 0.0000000000000000e+00  -1.1332999914884567e-02 1.5110000036656857e-02 0.0000000000000000e+00  1.2871700525283813e-01 2.3327900469303131e-01 0.0000000000000000e+00  1.2727500498294830e-01 2.4066999554634094e-01 0.0000000000000000e+00  1.3194400072097778e-01 2.3878900706768036e-01 0.0000000000000000e+00  1.3079300522804260e-01 2.2763699293136597e-01 0.0000000000000000e+00  1.2700499594211578e-01 2.2389499843120575e-01 0.0000000000000000e+00  1.2520700693130493e-01 2.1480299532413483e-01 0.0000000000000000e+00  1.3873299956321716e-01 2.3408000171184540e-01 0.0000000000000000e+00  1.3547000288963318e-01 2.2318999469280243e-01 0.0000000000000000e+00  1.4068999886512756e-01 2.3732300102710724e-01 0.0000000000000000e+00  1.3701699674129486e-01 2.2627499699592590e-01 0.0000000000000000e+00  1.2317500263452530e-01 1.9706499576568604e-01 0.0000000000000000e+00  1.2755499780178070e-01 2.1285800635814667e-01 0.0000000000000000e+00  1.3192400336265564e-01 2.2392000257968903e-01 0.0000000000000000e+00  1.3584400713443756e-01 2.3775500059127808e-01 0.0000000000000000e+00  1.3783499598503113e-01 2.4608300626277924e-01 0.0000000000000000e+00  1.3881400227546692e-01 2.4092799425125122e-01 0.0000000000000000e+00  1.2969000637531281e-01 2.1296900510787964e-01 0.0000000000000000e+00  -5.0400998443365097e-02 7.2420999407768250e-02 0.0000000000000000e+00  -6.0729999095201492e-02 5.6986000388860703e-02 0.0000000000000000e+00  -5.2324000746011734e-02 6.6427998244762421e-02 0.0000000000000000e+00  -1.6224000602960587e-02 1.0897000133991241e-01 0.0000000000000000e+00  -2.5437999516725540e-02 1.0312099754810333e-01 0.0000000000000000e+00  -3.1358998268842697e-02 9.3494996428489685e-02 0.0000000000000000e+00  -3.8660001009702682e-02 8.8821001350879669e-02 0.0000000000000000e+00  -3.2251000404357910e-02 -7.0712998509407043e-02 0.0000000000000000e+00  -3.2855998724699020e-02 -6.6252000629901886e-02 0.0000000000000000e+00  -3.0206000432372093e-02 -6.6886998713016510e-02 0.0000000000000000e+00  -3.0758999288082123e-02 -7.1103997528553009e-02 0.0000000000000000e+00  -3.6598000675439835e-02 -8.1602998077869415e-02 0.0000000000000000e+00  -6.6064998507499695e-02 -9.2105999588966370e-02 0.0000000000000000e+00  -5.9039998799562454e-02 -9.2727996408939362e-02 0.0000000000000000e+00  -6.5682999789714813e-02 -9.4568997621536255e-02 0.0000000000000000e+00  -4.5485999435186386e-02 -7