<?xml version="1.0"?>
<VTKFile type="UnstructuredGrid"  version="0.1"  >
<UnstructuredGrid>
<Piece  NumberOfPoints="6340" NumberOfCells="12376">
<Points>
<DataArray  type="Float64"  NumberOfComponents="3"  format="ascii">-0.01923600025475025 0.02059699967503548 0  -0.01992500014603138 0.0212399996817112 0  -0.02015000022947788 0.02026000060141087 0  -0.02069099992513657 0.02098000049591064 0  -0.01946100033819675 0.01967800036072731 0  -0.01908200047910213 0.02147099934518337 0  -0.01958299987018108 0.0221950002014637 0  -0.01912299916148186 0.0230139996856451 0  -0.02004100009799004 0.02291899919509888 0  -0.01862400025129318 0.0221989993005991 0  -0.007911999709904194 0.01801799982786179 0  -0.008604000322520733 0.01886099949479103 0  -0.008932000026106834 0.01791900023818016 0  -0.009631999768316746 0.01879999972879887 0  -0.02663500048220158 0.0734890028834343 0  -0.02762500010430813 0.07386299967765808 0  -0.02775200083851814 0.07306399941444397 0  -0.02671300061047077 0.06693899631500244 0  -0.02741999924182892 0.06761199980974197 0  -0.02755099907517433 0.0667169988155365 0  -0.02834999933838844 0.06710000336170197 0  -0.01389400009065866 0.08570300042629242 0  -0.01480299979448318 0.0855410024523735 0  -0.01416399981826544 0.08490599691867828 0  -0.02084499970078468 0.07976800203323364 0  -0.01983699947595596 0.07997400313615799 0  -0.0204050000756979 0.0806490033864975 0  -0.02028200030326843 0.07908499985933304 0  -0.02167499996721745 0.02428000047802925 0  -0.02083799988031387 0.02443799935281277 0  -0.02119000069797039 0.0251690000295639 0  -0.02150199934840202 0.02590999938547611 0  -0.02204300090670586 0.02501999959349632 0  -0.02034500055015087 0.0253320001065731 0  -0.01996400021016598 0.02454500086605549 0  -0.01907199993729591 0.0246370006352663 0  -0.01947000063955784 0.02542500011622906 0  -0.02131900005042553 0.02352900058031082 0  -0.0222340002655983 0.02341699972748756 0  -0.0216899998486042 0.02230999991297722 0  -0.02120500057935715 0.02166399918496609 0  -0.02092799916863441 0.02273900061845779 0  -0.02042499929666519 0.02199600078165531 0  -0.01594500057399273 0.02192500047385693 0  -0.01645299978554249 0.02104200050234795 0  -0.01545200031250715 0.02104100026190281 0  -0.01687400043010712 0.02202199958264828 0  -0.01779299974441528 0.02201800048351288 0  -0.01731199957430363 0.022902000695467 0  0.03731200098991394 0.07809799909591675 0  0.03721699863672256 0.07717300206422806 0  0.03832999989390373 0.07730799913406372 0  0.03763800114393234 0.08931600302457809 0  0.03828199952840805 0.0895949974656105 0  0.03726400062441826 0.09009499847888947 0  0.02088700048625469 0.09814800322055817 0  0.02114499919116497 0.09734199941158295 0  0.02188899926841259 0.09765499830245972 0  0.01996699906885624 0.09860000014305115 0  0.02023999951779842 0.09762600064277649 0  -0.009123999625444412 0.09407100081443787 0  -0.008206999860703945 0.09430799633264542 0  -0.00888300035148859 0.09492699801921844 0  -0.007953999564051628 0.09516900032758713 0  -0.02033199928700924 0.09337200224399567 0  -0.02061299979686737 0.09269700199365616 0  -0.01958199962973595 0.09294500201940536 0  -0.02129199914634228 0.09340500086545944 0  -0.01755999960005283 0.09917599707841873 0  -0.01790899969637394 0.09993000328540802 0  -0.01835400052368641 0.09918499737977982 0  -0.01276599988341331 0.09256099909543991 0  -0.01190800033509731 0.09271900355815887 0  -0.01257700007408857 0.09334799647331238 0  -0.0136310001835227 0.09241600334644318 0  -0.0129610002040863 0.09178800135850906 0  -0.01382599957287312 0.09164299815893173 0  -0.0164950005710125 0.0941149964928627 0  -0.01712100021541119 0.09471999853849411 0  -0.01739699952304363 0.09395299851894379 0  -0.01516900025308132 0.09289199858903885 0  -0.01605900004506111 0.09274700284004211 0  -0.01537999976426363 0.0921270027756691 0  0.00901699997484684 0.09137800335884094 0  0.009934999980032444 0.09129100292921066 0  0.009309000335633755 0.0920569971203804 0  0.007166999857872725 0.07811500132083893 0  0.007747000083327293 0.07722999900579453 0  0.008084000088274479 0.07802700251340866 0  -0.00761000020429492 0.01713999919593334 0  -0.006779999937862158 0.01736900024116039 0  -0.008492999710142612 0.01701500080525875 0  -0.009413000196218491 0.01688499934971333 0  -0.01312000025063753 0.01680999994277954 0  -0.01337500009685755 0.01789700053632259 0  -0.01398499961942434 0.01700299978256226 0  -0.01254799962043762 0.01771200075745583 0  -0.01257899962365627 0.01874100044369698 0  -0.01171599980443716 0.01788900047540665 0  -0.01211700029671192 0.02167499996721745 0  -0.01260100025683641 0.02071800082921982 0  -0.011655000038445 0.02075899951159954 0  -0.01117900013923645 0.01990099996328354 0  -0.01062299963086843 0.02074499987065792 0  -0.01214000023901463 0.0197599995881319 0  -0.01306900009512901 0.02169100008904934 0  -0.0145030003041029 0.02091800048947334 0  -0.01497399993240833 0.02188000082969666 0  -0.01402499992400408 0.02177700027823448 0  -0.009115000255405903 0.01975000090897083 0  -0.01101399958133698 0.03068700060248375 0  -0.01152100041508675 0.02981700003147125 0  -0.01052500028163195 0.02976199984550476 0  -0.005470999982208014 0.02945799939334393 0  -0.00597700010985136 0.03038799948990345 0  -0.006486000027507544 0.02951999939978123 0  -0.008132999762892723 0.01982199959456921 0  -0.00559999980032444 0.01929499953985214 0  -0.00659599993377924 0.01912100054323673 0  -0.005803999956697226 0.0184480007737875 0  -0.005882999859750271 0.01761600002646446 0  -0.004889999981969595 0.01789000071585178 0  0.03991600126028061 0.08564300090074539 0  0.04075499996542931 0.08504100143909454 0  0.04035200178623199 0.08626600354909897 0  0.03939000144600868 0.0864889994263649 0  0.01565800048410892 0.05850600078701973 0  0.01663799956440926 0.05834000185132027 0  0.01619100011885166 0.05924399942159653 0  0.02851700037717819 0.04293600097298622 0  0.02896600030362606 0.04188099876046181 0  0.02940399944782257 0.04255300015211105 0  0.03047600015997887 0.04683500155806541 0  0.03133299946784973 0.04611000046133995 0  0.03164000064134598 0.04679999873042107 0  0.03018400073051453 0.05018199980258942 0  0.02930900081992149 0.05033800005912781 0  0.02981800027191639 0.04939199984073639 0  0.02942400053143501 0.04863899946212769 0  0.03036499954760075 0.04844599962234497 0  0.02890199981629848 0.04957199841737747 0  0.02840200066566467 0.05050599947571754 0  0.0284659992903471 0.04884599894285202 0  0.02796800062060356 0.04814599826931953 0  0.02749999985098839 0.04904000088572502 0  0.02698599919676781 0.04832800105214119 0  0.03728799894452095 0.08797399699687958 0  0.03633600100874901 0.08806700259447098 0  0.03697200119495392 0.0873119980096817 0  0.03604400157928467 0.08737599849700928 0  0.007801000028848648 0.02454799972474575 0  0.008511999621987343 0.02500900067389011 0  0.007807999849319458 0.02561699971556664 0  0.008582999929785728 0.02597199939191341 0  0.026528000831604 0.04922199994325638 0  0.02271099947392941 0.05152900144457817 0  0.02225900068879128 0.05243099853396416 0  0.02173699997365475 0.05169200152158737 0  0.02322600036859512 0.05226700007915497 0  0.02883199974894524 0.05126899853348732 0  0.01815200038254261 0.03528499975800514 0  0.01730599999427795 0.03518500179052353 0  0.0177020002156496 0.03428500145673752 0  0.01292399968951941 0.04068100079894066 0  0.01203299965709448 0.04070699959993362 0  0.01247300021350384 0.03981100022792816 0  0.01158099994063377 0.03983800113201141 0  0.01114100031554699 0.04073299840092659 0  0.01112799998372793 0.03896300122141838 0  0.0120219998061657 0.03894200176000595 0  0.01248400006443262 0.04157799854874611 0  -0.02829599939286709 0.06796000152826309 0  -0.02719599939882755 0.06845100224018097 0  -0.02824600040912628 0.06874600052833557 0  -0.02643899992108345 0.0678509995341301 0  -0.02611099928617477 0.06870800256729126 0  -0.02506100013852119 0.06896299868822098 0  -0.0256159994751215 0.06962999701499939 0  -0.02440599910914898 0.06832099705934525 0  -0.02402999997138977 0.06920000165700912 0  -0.02462399937212467 0.06986100226640701 0  -0.02835999988019466 0.06621699780225754 0  -0.01997200027108192 0.0815190002322197 0  -0.02096999995410442 0.08132199943065643 0  -0.02023299969732761 0.08981200307607651 0  -0.02115000039339066 0.08968699723482132 0  -0.02049599960446358 0.08904500305652618 0  -0.02140999957919121 0.08892399817705154 0  -0.02076200023293495 0.08827199786901474 0  -0.01963300071656704 0.0922200009226799 0  -0.01876600086688995 0.09235300123691559 0  -0.01862400025129318 0.0930899977684021 0  -0.01508599985390902 0.08473700284957886 0  -0.01211499981582165 0.07917699962854385 0  -0.01111199986189604 0.0793830007314682 0  -0.01169199962168932 0.08004999905824661 0  -0.01131599955260754 0.08090099692344666 0  -0.01071699988096952 0.08024299889802933 0  -0.01607600040733814 0.07671000063419342 0  -0.01654399931430817 0.07578600198030472 0  -0.01553199999034405 0.07600600272417068 0  -0.01451900042593479 0.07622499763965607 0  -0.01497399993240833 0.07530199736356735 0  -0.0192709993571043 0.07929600030183792 0  -0.01872299984097481 0.07859999686479568 0  -0.01973799988627434 0.07838299870491028 0  -0.02075600065290928 0.07816799730062485 0  -0.02524800039827824 0.07052599638700485 0  -0.02595699951052666 0.0728209987282753 0  -0.02557599917054176 0.07372099906206131 0  -0.0225210003554821 0.02400300092995167 0  -0.02280000038444996 0.02456999942660332 0  -0.02298399992287159 0.02511800080537796 0  -0.02318199910223484 0.02570700086653233 0  -0.02232000045478344 0.02579200081527233 0  -0.01955600082874298 0.02377299964427948 0  -0.01865600049495697 0.02385500073432922 0  -0.02046000026166439 0.02366200089454651 0  -0.0219539999961853 0.0228470005095005 0  -0.01739400066435337 0.01820000074803829 0  -0.01701899990439415 0.01896500028669834 0  -0.01814999990165234 0.01857000030577183 0  -0.01661800034344196 0.01782000064849854 0  -0.01818699948489666 0.02300300076603889 0  -0.016395
[...]
<PointData  Vectors="velocity"> 
<DataArray  type="Float64"  Name="velocity"  NumberOfComponents="3" format="ascii">1.8179999897256494e-03 2.5130000431090593e-03 0.0000000000000000e+00  2.1989999804645777e-03 2.8009999077767134e-03 0.0000000000000000e+00  -3.0219999607652426e-03 3.0219999607652426e-03 0.0000000000000000e+00  -3.8179999683052301e-03 4.3489998206496239e-03 0.0000000000000000e+00  -2.2420000750571489e-03 2.5019999593496323e-03 0.0000000000000000e+00  4.6060001477599144e-03 5.2519999444484711e-03 0.0000000000000000e+00  4.8639997839927673e-03 5.4089999757707119e-03 0.0000000000000000e+00  8.1340000033378601e-03 8.2510001957416534e-03 0.0000000000000000e+00  5.7459999807178974e-03 6.0800001956522465e-03 0.0000000000000000e+00  7.2730001993477345e-03 7.6930001378059387e-03 0.0000000000000000e+00  -5.5000000429572538e-05 -1.7059999518096447e-03 0.0000000000000000e+00  -1.0499999916646630e-04 -1.5050000511109829e-03 0.0000000000000000e+00  -2.9299999005161226e-04 -1.2379999971017241e-03 0.0000000000000000e+00  -2.1100000594742596e-04 -8.3199999062344432e-04 0.0000000000000000e+00  -3.5290000960230827e-03 -3.0030999332666397e-02 0.0000000000000000e+00  -2.3560000117868185e-03 7.6039999723434448e-02 0.0000000000000000e+00  -3.7650000303983688e-03 7.5805000960826874e-02 0.0000000000000000e+00  -1.1399999493733048e-03 -3.7050001323223114e-02 0.0000000000000000e+00  -1.6019999748095870e-03 -3.1831000000238419e-02 0.0000000000000000e+00  -1.9600000232458115e-03 -3.1647000461816788e-02 0.0000000000000000e+00  -1.2087999843060970e-02 7.1773000061511993e-02 0.0000000000000000e+00  -7.1740001440048218e-02 -5.6970000267028809e-02 0.0000000000000000e+00  -6.3823997974395752e-02 -5.1865000277757645e-02 0.0000000000000000e+00  -7.0579998195171356e-02 -6.2470000237226486e-02 0.0000000000000000e+00  -1.6111999750137329e-02 -4.8838000744581223e-02 0.0000000000000000e+00  -2.0690999925136566e-02 -5.5309001356363297e-02 0.0000000000000000e+00  -1.8882000818848610e-02 -4.7515999525785446e-02 0.0000000000000000e+00  -1.7105000093579292e-02 -5.6136000901460648e-02 0.0000000000000000e+00  4.8899999819695950e-03 4.9890000373125076e-03 0.0000000000000000e+00  7.7639999799430370e-03 7.5090001337230206e-03 0.0000000000000000e+00  7.6859998516738415e-03 7.2550000622868538e-03 0.0000000000000000e+00  6.5930001437664032e-03 6.1579998582601547e-03 0.0000000000000000e+00  4.0719998069107533e-03 4.1450001299381256e-03 0.0000000000000000e+00  1.1327999643981457e-02 1.0131999850273132e-02 0.0000000000000000e+00  1.0656000114977360e-02 9.8710004240274429e-03 0.0000000000000000e+00  1.3554999604821205e-02 1.2031000107526779e-02 0.0000000000000000e+00  1.4681000262498856e-02 1.2546000070869923e-02 0.0000000000000000e+00  4.1809999383985996e-03 4.4559999369084835e-03 0.0000000000000000e+00  -6.0279997996985912e-03 9.3890000134706497e-03 0.0000000000000000e+00  -5.2889999933540821e-03 6.8000000901520252e-03 0.0000000000000000e+00  -4.5750001445412636e-03 5.6099998764693737e-03 0.0000000000000000e+00  3.1719999387860298e-03 3.6130000371485949e-03 0.0000000000000000e+00  2.4850000627338886e-03 3.0420001130551100e-03 0.0000000000000000e+00  9.5450002700090408e-03 9.7470004111528397e-03 0.0000000000000000e+00  6.1940001323819160e-03 7.2470000013709068e-03 0.0000000000000000e+00  6.9079999811947346e-03 7.8769996762275696e-03 0.0000000000000000e+00  8.8799996301531792e-03 9.2740003019571304e-03 0.0000000000000000e+00  7.8560002148151398e-03 8.3429999649524689e-03 0.0000000000000000e+00  1.2107999995350838e-02 1.1517000384628773e-02 0.0000000000000000e+00  6.0729999095201492e-02 1.6802400350570679e-01 0.0000000000000000e+00  5.3810998797416687e-02 1.6387900710105896e-01 0.0000000000000000e+00  6.2839998863637447e-03 5.7658001780509949e-02 0.0000000000000000e+00  6.5682999789714813e-02 1.8076199293136597e-01 0.0000000000000000e+00  6.4176999032497406e-02 1.7439199984073639e-01 0.0000000000000000e+00  5.6660998612642288e-02 1.7803399264812469e-01 0.0000000000000000e+00  -1.3180199265480042e-01 9.4706997275352478e-02 0.0000000000000000e+00  -1.3343000411987305e-01 1.0551299899816513e-01 0.0000000000000000e+00  -1.2704299390316010e-01 1.0327699780464172e-01 0.0000000000000000e+00  -1.3496099412441254e-01 8.7090998888015747e-02 0.0000000000000000e+00  -1.3923199474811554e-01 9.9422998726367950e-02 0.0000000000000000e+00  -5.0025999546051025e-02 -2.3412000387907028e-02 0.0000000000000000e+00  -5.3785998374223709e-02 -2.9357999563217163e-02 0.0000000000000000e+00  -4.2417999356985092e-02 -1.8952999264001846e-02 0.0000000000000000e+00  -4.7478999942541122e-02 -2.5010999292135239e-02 0.0000000000000000e+00  8.9859999716281891e-03 1.7776999622583389e-02 0.0000000000000000e+00  7.6959999278187752e-03 1.5433999709784985e-02 0.0000000000000000e+00  5.6130001321434975e-03 1.7936000600457191e-02 0.0000000000000000e+00  3.0766999348998070e-02 7.7062003314495087e-02 0.0000000000000000e+00  1.9385000690817833e-02 3.5840000957250595e-02 0.0000000000000000e+00  3.7255000323057175e-02 7.1957997977733612e-02 0.0000000000000000e+00  3.7523999810218811e-02 7.3034003376960754e-02 0.0000000000000000e+00  -3.5696998238563538e-02 -4.8589999787509441e-03 0.0000000000000000e+00  -4.0750999003648758e-02 -1.0387999936938286e-02 0.0000000000000000e+00  -3.2212998718023300e-02 -9.6099998336285353e-04 0.0000000000000000e+00  -3.0811000615358353e-02 -7.3099997825920582e-04 0.0000000000000000e+00  -3.8786001503467560e-02 -9.2460000887513161e-03 0.0000000000000000e+00  -3.3551998436450958e-02 -4.7659999690949917e-03 0.0000000000000000e+00  -2.7759999502450228e-03 2.0393999293446541e-02 0.0000000000000000e+00  4.9999998736893758e-05 2.3346999660134315e-02 0.0000000000000000e+00  7.0299999788403511e-04 2.1599000319838524e-02 0.0000000000000000e+00  -1.9094999879598618e-02 1.0363000445067883e-02 0.0000000000000000e+00  -1.5014000236988068e-02 1.2354999780654907e-02 0.0000000000000000e+00  -2.1306000649929047e-02 6.6729998216032982e-03 0.0000000000000000e+00  -1.2212699651718140e-01 1.8035000190138817e-02 0.0000000000000000e+00  -1.1704300343990326e-01 3.3440001308917999e-02 0.0000000000000000e+00  -1.2571400403976440e-01 2.0148999989032745e-02 0.0000000000000000e+00  1.4847000129520893e-02 4.9283001571893692e-02 0.0000000000000000e+00  2.7889000251889229e-02 6.1241000890731812e-02 0.0000000000000000e+00  2.1062999963760376e-02 6.6301003098487854e-02 0.0000000000000000e+00  3.0219999607652426e-03 3.7779998965561390e-03 0.0000000000000000e+00  3.0219999607652426e-03 3.7779998965561390e-03 0.0000000000000000e+00  3.0219999607652426e-03 3.5359999164938927e-03 0.0000000000000000e+00  3.0219999607652426e-03 3.2840000931173563e-03 0.0000000000000000e+00  3.0219999607652426e-03 1.5109999803826213e-03 0.0000000000000000e+00  -9.7200000891461968e-04 1.0580000234767795e-03 0.0000000000000000e+00  2.5269999168813229e-03 1.5109999803826213e-03 0.0000000000000000e+00  -1.2489999644458294e-03 7.6899997657164931e-04 0.0000000000000000e+00  -1.0900000052060932e-04 1.9249999895691872e-03 0.0000000000000000e+00  -1.3279999839141965e-03 5.2000000141561031e-04 0.0000000000000000e+00  1.0189999826252460e-02 6.5709999762475491e-03 0.0000000000000000e+00  5.9210001491010189e-03 5.3880000486969948e-03 0.0000000000000000e+00  6.0859997756779194e-03 4.1629998013377190e-03 0.0000000000000000e+00  2.5820001028478146e-03 1.9849999807775021e-03 0.0000000000000000e+00  5.8200000785291195e-03 2.6519999373704195e-03 0.0000000000000000e+00  2.3829999845474958e-03 3.0950000509619713e-03 0.0000000000000000e+00  1.0228999890387058e-02 8.0059999600052834e-03 0.0000000000000000e+00  6.6740000620484352e-03 7.4959998019039631e-03 0.0000000000000000e+00  1.0239000432193279e-02 9.8999999463558197e-03 0.0000000000000000e+00  1.0428000241518021e-02 9.2740003019571304e-03 0.0000000000000000e+00  1.8070000223815441e-03 -4.4699999853037298e-04 0.0000000000000000e+00  6.1516001820564270e-02 2.7605000883340836e-02 0.0000000000000000e+00  5.8756999671459198e-02 2.6441000401973724e-02 0.0000000000000000e+00  6.1477001756429672e-02 2.7158999815583229e-02 0.0000000000000000e+00  6.3937000930309296e-02 2.3718999698758125e-02 0.0000000000000000e+00  7.1126997470855713e-02 2.7172999456524849e-02 0.0000000000000000e+00  6.4551003277301788e-02 2.4894999340176582e-02 0.0000000000000000e+00  1.7579999985173345e-03 -9.0300000738352537e-04 0.0000000000000000e+00  -4.9000000581145287e-04 -1.8050000071525574e-03 0.0000000000000000e+00  -1.8099999579135329e-04 -1.8090000376105309e-03 0.0000000000000000e+00  -9.8100001923739910e-04 -2.0689999219030142e-03 0.0000000000000000e+00  3.0219999607652426e-03 3.7779998965561390e-03 0.0000000000000000e+00  3.0219999607652426e-03 3.7779998965561390e-03 0.0000000000000000e+00  8.4092997014522552e-02 1.6751599311828613e-01 0.0000000000000000e+00  8.2436002790927887e-02 1.5797400474548340e-01 0.0000000000000000e+00  8.2703001797199249e-02 1.6369600594043732e-01 0.0000000000000000e+00  8.3806000649929047e-02 1.7328900098800659e-01 0.0000000000000000e+00  1.0493300110101700e-01 1.1308699846267700e-01 0.0000000000000000e+00  1.0453300178050995e-01 1.2008699774742126e-01 0.0000000000000000e+00  1.0260099917650223e-01 1.1803700029850006e-01 0.0000000000000000e+00  2.0995000377297401e-02 2.2748999297618866e-02 0.0000000000000000e+00  2.5009000673890114e-02 1.8209999427199364e-02 0.0000000000000000e+00  2.5745000690221786e-02 1.8945999443531036e-02 0.0000000000000000e+00  2.3514000698924065e-02 4.0004000067710876e-02 0.0000000000000000e+00  2.6706999167799950e-02 2.3458000272512436e-02 0.0000000000000000e+00  2.6944000273942947e-02 2.4168999865651131e-02 0.0000000000000000e+00  3.8883000612258911e-02 7.0344001054763794e-02 0.0000000000000000e+00  4.6962000429630280e-02 7.9107001423835754e-02 0.0000000000000000e+00  3.9025001227855682e-02 6.6454999148845673e-02 0.0000000000000000e+00  3.9287999272346497e-02 6.3078999519348145e-02 0.0000000000000000e+00  3.0541999265551567e-02 5.3782001137733459e-02 0.0000000000000000e+00  4.7651998698711395e-02 7.5562000274658203e-02 0.0000000000000000e+00  5.5417999625205994e-02 8.8073000311851501e-02 0.0000000000000000e+00  4.8503998667001724e-02 7.2545997798442841e-02 0.0000000000000000e+00  5.0441000610589981e-02 6.9779001176357269e-02 0.0000000000000000e+00  5.7829998433589935e-02 8.1771001219749451e-02 0.0000000000000000e+00  6.1174999922513962e-02 7.8079998493194580e-02 0.0000000000000000e+00  7.6720997691154480e-02 1.8772199749946594e-01 0.0000000000000000e+00  7.4307002127170563e-02 1.9260500371456146e-01 0.0000000000000000e+00  8.0719001591205597e-02 1.9149599969387054e-01 0.0000000000000000e+00  7.8682996332645416e-02 1.9634599983692169e-01 0.0000000000000000e+00  9.0140001848340034e-03 5.8100000023841858e-03 0.0000000000000000e+00  9.7709996625781059e-03 5.5570001713931561e-03 0.0000000000000000e+00  6.3470001332461834e-03 4.7570001333951950e-03 0.0000000000000000e+00  6.5109999850392342e-03 5.1119998097419739e-03 0.0000000000000000e+00  6.7396998405456543e-02 9.0126998722553253e-02 0.0000000000000000e+00  9.9586002528667450e-02 1.2274599820375443e-01 0.0000000000000000e+00  1.0227700322866440e-01 1.2779800593852997e-01 0.0000000000000000e+00  1.0481700301170349e-01 1.2451200187206268e-01 0.0000000000000000e+00  9.7350001335144043e-02 1.2617899477481842e-01 0.0000000000000000e+00  5.4184000939130783e-02 9.1495998203754425e-02 0.0000000000000000e+00  3.2083999365568161e-02 2.1583000198006630e-02 0.0000000000000000e+00  3.5810999572277069e-02 2.4244999513030052e-02 0.0000000000000000e+00  2.5311000645160675e-02 1.7875000834465027e-02 0.0000000000000000e+00  1.2196099758148193e-01 6.7358002066612244e-02 0.0000000000000000e+00  1.2617999315261841e-01 6.6350996494293213e-02 0.0000000000000000e+00  1.1647400259971619e-01 6.2932997941970825e-02 0.0000000000000000e+00  1.2085299938917160e-01 6.2302999198436737e-02 0.0000000000000000e+00  1.3001699745655060e-01 6.5053001046180725e-02 0.0000000000000000e+00  1.1509399861097336e-01 5.7921998202800751e-02 0.0000000000000000e+00  1.1057800054550171e-01 5.8281999081373215e-02 0.0000000000000000e+00  1.2982900440692902e-01 7.0702999830245972e-02 0.0000000000000000e+00  -1.1064999736845493e-02 7.2540000081062317e-02 0.0000000000000000e+00  -1.1530000483617187e-03 -3.2370001077651978e-02 0.0000000000000000e+00  -1.0130000300705433e-02 7.3242001235485077e-02 0.0000000000000000e+00  -8.0199999501928687e-04 -3.7898998707532883e-02 0.0000000000000000e+00  -4.7599998652003706e-04 -3.9057999849319458e-02 0.0000000000000000e+00  -2.0799999765586108e-04 -4.6137001365423203e-02 0.0000000000000000e+00  -4.7500000800937414e-04 -4.1230000555515289e-02 0.0000000000000000e+00  -6.7000000854022801e-05 -5.2055999636650085e-02 0.0000000000000000e+00  -2.2299999545793980e-04 -5.3653001785278320e-02 0.0000000000000000e+00  -2.8199999360367656e-04 -4.7936998307704926e-02 0.0000000000000000e+00  -1.2880000285804272e-02 7.0982001721858978e-02 0.0000000000000000e+00  -2.2810000926256180e-02 -4.5938000082969666e-02 0.0000000000000000e+00  -1.7663000151515007e-02 -4.0295999497175217e-02 0.0000000000000000e+00  -5.8980002067983150e-03 4.9069998785853386e-03 0.0000000000000000e+00  -1.9930000416934490e-03 4.7059999778866768e-03 0.0000000000000000e+00  -9.4889998435974121e-03 1.2469999492168427e-03 0.0000000000000000e+00  -6.1739999800920486e-03 8.2700001075863838e-04 0.0000000000000000e+00  -1.0208000428974628e-02 -2.0139999687671661e-03 0.0000000000000000e+00  -5.7600002037361264e-04 1.4582999981939793e-02 0.0000000000000000e+00  -3.5959999077022076e-03 1.5146999619901180e-02 0.0000000000000000e+00  2.4149999953806400e-03 1.8532000482082367e-02 0.0000000000000000e+00  -6.2513999640941620e-02 -5.7091999799013138e-02 0.0000000000000000e+00  -5.8637000620365143e-02 -1.1901000142097473e-01 0.0000000000000000e+00  -6.5030999481678009e-02 -1.2325199693441391e-01 0.0000000000000000e+00  -6.5890997648239136e-02 -1.1616300046443939e-01 0.0000000000000000e+00  -7.5690001249313354e-02 -1.1326400190591812e-01 0.0000000000000000e+00  -7.2567000985145569e-02 -1.2007399648427963e-01 0.0000000000000000e+00  -2.6280000805854797e-02 -1.0249300301074982e-01 0.0000000000000000e+00  -1.8969999626278877e-02 -1.0151299834251404e-01 0.0000000000000000e+00  -2.2469000890851021e-02 -1.0909900069236755e-01 0.0000000000000000e+00  -2.6162000373005867e-02 -1.1610800027847290e-01 0.0000000000000000e+00  -2.0393000915646553e-02 -1.1578000336885452e-01 0.0000000000000000e+00  -2.1865999326109886e-02 -6.3253000378608704e-02 0.0000000000000000e+00  -2.0728999748826027e-02 -7.0802003145217896e-02 0.0000000000000000e+00  -1.6038000583648682e-02 -6.3308000564575195e-02 0.0000000000000000e+00  -1.2120000086724758e-02 -5.6106999516487122e-02 0.0000000000000000e+00  -1.9690000917762518e-03 -4.2773000895977020e-02 0.0000000000000000e+00  -1.8960000015795231e-03 -3.4216001629829407e-02 0.0000000000000000e+00  -2.7650000993162394e-03 -3.5323999822139740e-02 0.0000000000000000e+00  -6.4199999906122684e-03 1.0761000216007233e-02 0.0000000000000000e+00  -6.8000000901520252e-03 1.2087999843060970e-02 0.0000000000000000e+00  -7.1519999764859676e-03 1.3673000037670135e-02 0.0000000000000000e+00  -7.5309998355805874e-03 1.5379000455141068e-02 0.0000000000000000e+00  3.8060001097619534e-03 3.8000000640749931e-03 0.0000000000000000e+00  9.4739999622106552e-03 9.1530000790953636e-03 0.0000000000000000e+00  1.2020000256597996e-02 1.1156000196933746e-02 0.0000000000000000e+00  6.7879999987781048e-03 6.8479999899864197e-03 0.0000000000000000e+00  -5.6480001658201218e-03 8.0559998750686646e-03 0.0000000000000000e+00  -3.7999998312443495e-05 1.5109999803826213e-03 0.0000000000000000e+00  1.1840000515803695e-03 2.1319999359548092e-03 0.0000000000000000e+00  -7.5599999399855733e-04 1.5109999803826213e-03 0.0000000000000000e+00  6.9800001801922917e-04 1.5109999803826213e-03 0.0000000000000000e+00  1.0335000231862068e-02 1.0126000270247459e-02 0.0000000000000000e+00  1.3004000298678875e-02 1.1986000463366508e-02 0.0000000000000000e+00  1.8110999837517738e-02 1.4580000191926956e-02 0.0000000000000000e+00  1.6299000009894371e-02 1.3930000364780426e-02 0.0000000000000000e+00  5.6639000773429871e-02 2.5717999786138535e-02 0.0000000000000000e+00  5.6818000972270966e-02 2.5817999616265297e-02 0.0000000000000000e+00  5.1189001649618149e-02 2.3195000365376472e-02 0.0000000000000000e+00  1.0166999883949757e-02 5.1130000501871109e-03 0.0000000000000000e+00  2.0612999796867371e-02 8.3119999617338181e-03 0.0000000000000000e+00  2.6557000353932381e-02 1.0408000089228153e-02 0.0000000000000000e+00  2.7034999802708626e-02 1.1536999605596066e-02 0.0000000000000000e+00  1.9768999889492989e-02 7.1490001864731312e-03 0.0000000000000000e+00  1.4535999856889248e-02 5.2959998138248920e-03 0.0000000000000000e+00  3.2634001225233078e-02 1.2644000351428986e-02 0.0000000000000000e+00  3.8943000137805939e-02 1.5053999610245228e-02 0.0000000000000000e+00  3.9880998432636261e-02 1.6217000782489777e-02 0.0000000000000000e+00  7.8080996870994568e-02 1.6437900066375732e-01 0.0000000000000000e+00  7.5594000518321991e-02 1.5496399998664856e-01 0.0000000000000000e+00  7.3752999305725098e-02 1.6286399960517883e-01 0.0000000000000000e+00  8.8931001722812653e-02 1.9335900247097015e-01 0.0000000000000000e+00  8.6837001144886017e-02 1.9069899618625641e-01 0.0000000000000000e+00  8.7288998067378998e-02 1.9738699495792389e-01 0.0000000000000000e+00  8.8717997074127197e-02 2.1393199265003204e-01 0.0000000000000000e+00  8.8301002979278564e-02 2.1691200137138367e-01 0.0000000000000000e+00  8.6502999067306519e-02 2.1488000452518463e-01 0.0000000000000000e+00  6.0439999215304852e-03 5.7418998330831528e-02 0.0000000000000000e+00  3.8598999381065369e-02 1.8061099946498871e-01 0.0000000000000000e+00  2.7760999277234077e-02 1.7972299456596375e-01 0.0000000000000000e+00  4.1044998914003372e-02 1.8587400019168854e-01 0.0000000000000000e+00  5.1486000418663025e-02 1.8625700473785400e-01 0.0000000000000000e+00  4.5354001224040985e-02 1.8056599795818329e-01 0.0000000000000000e+00  5.0935998558998108e-02 1.7939800024032593e-01 0.0000000000000000e+00  7.6641999185085297e-02 2.0059099793434143e-01 0.0000000000000000e+00  8.2700997591018677e-02 1.9937799870967865e-01 0.0000000000000000e+00  8.1192001700401306e-02 2.0344699919223785e-01 0.0000000000000000e+00  8.6038000881671906e-02 2.0183099806308746e-01 0.0000000000000000e+00  7.1189001202583313e-02 1.8410600721836090e-01 0.0000000000000000e+00  6.0584001243114471e-02 1.8436600267887115e-01 0.0000000000000000e+00  6.0612000524997711e-02 1.8909999728202820e-01 0.0000000000000000e+00  5.4634999483823776e-02 1.9141200184822083e-01 0.0000000000000000e+00  5.2744999527931213e-02 1.9431099295616150e-01 0.0000000000000000e+00  6.3171997666358948e-02 1.9625900685787201e-01 0.0000000000000000e+00  6.9066002964973450e-02 1.8860299885272980e-01 0.0000000000000000e+00  -1.3744300603866577e-01 7.1901001036167145e-02 0.0000000000000000e+00  -1.3654899597167969e-01 6.5228000283241272e-02 0.0000000000000000e+00  -1.4440399408340454e-01 7.2512000799179077e-02 0.0000000000000000e+00  -1.4404599368572235e-01 9.7281001508235931e-02 0.0000000000000000e+00  -1.4061099290847778e-01 8.9790999889373779e-02 0.0000000000000000e+00  -1.4562299847602844e-01 8.6972996592521667e-02 0.0000000000000000e+00  -1.3747499883174896e-01 7.9380996525287628e-02 0.0000000000000000e+00  -4.1407000273466110e-02 -1.1536999605596066e-02 0.0000000000000000e+00  -2.8720999136567116e-02 -2.0079999230802059e-03 0.0000000000000000e+00  -3.6834999918937683e-02 -6.3640000298619270e-03 0.0000000000000000e+00  -4.5811999589204788e-02 -1.5894999727606773e-02 0.0000000000000000e+00  -6.1073999851942062e-02 -3.3953998237848282e-02 0.0000000000000000e+00  -7.8334003686904907e-02 -4.7708000987768173e-02 0.0000000000000000e+00  -7.6421998441219330e-02 -5.2825998514890671e-02 0.0000000000000000e+00  -8.5692003369331360e-02 -5.5977001786231995e-02 0.0000000000000000e+00  -4.1046999394893646e-02 -1.5118000