<?xml version="1.0"?>
<VTKFile type="UnstructuredGrid"  version="0.1"  >
<UnstructuredGrid>
<Piece  NumberOfPoints="6340" NumberOfCells="12376">
<Points>
<DataArray  type="Float64"  NumberOfComponents="3"  format="ascii">-0.01948099955916405 0.02068700082600117 0  -0.02026299946010113 0.02137999981641769 0  -0.02047000080347061 0.02037999965250492 0  -0.02111000008881092 0.02119500003755093 0  -0.01969500072300434 0.01976400054991245 0  -0.01934400014579296 0.02156800031661987 0  -0.01992500014603138 0.02234099991619587 0  -0.01944700069725513 0.02314699999988079 0  -0.0204709991812706 0.02315099909901619 0  -0.01886799931526184 0.02228900045156479 0  -0.007753000129014254 0.01815200038254261 0  -0.008444000035524368 0.01898599974811077 0  -0.008768999949097633 0.01804599910974503 0  -0.009468000382184982 0.0189180001616478 0  -0.02622199989855289 0.07772400230169296 0  -0.02716200053691864 0.07823699712753296 0  -0.02734800055623055 0.07744999974966049 0  -0.02677799947559834 0.0710970014333725 0  -0.02742199972271919 0.071881003677845 0  -0.02761499956250191 0.07098899781703949 0  -0.02837000042200089 0.07148999720811844 0  -0.01239299960434437 0.08837000280618668 0  -0.01328899990767241 0.08833300322294235 0  -0.01274100039154291 0.08759699761867523 0  -0.01995399966835976 0.08328200131654739 0  -0.0189410001039505 0.08335399627685547 0  -0.0194109994918108 0.08412099629640579 0  -0.01948799937963486 0.08251000195741653 0  -0.02238300070166588 0.02483600005507469 0  -0.02143700048327446 0.02484400011599064 0  -0.02187900058925152 0.02570600062608719 0  -0.02227500081062317 0.02657200023531914 0  -0.02284199930727482 0.02571200020611286 0  -0.02092500030994415 0.02571799978613853 0  -0.02046000026166439 0.02484400011599064 0  -0.01946499943733215 0.0248390007764101 0  -0.01994699984788895 0.02570999972522259 0  -0.021934999153018 0.02395199984312057 0  -0.02297100052237511 0.02400700002908707 0  -0.02229000069200993 0.0227000005543232 0  -0.02171700075268745 0.02196899987757206 0  -0.02145699970424175 0.02306200005114079 0  -0.02085799910128117 0.02222800068557262 0  -0.01596000045537949 0.02194700017571449 0  -0.01647699996829033 0.02106400020420551 0  -0.01541899982839823 0.02106600068509579 0  -0.0169450007379055 0.02204300090670586 0  -0.01795100048184395 0.02207400090992451 0  -0.01745500043034554 0.0229519996792078 0  0.03864600136876106 0.08090899884700775 0  0.03849000111222267 0.0800279974937439 0  0.03965400159358978 0.08025199919939041 0  0.03969600051641464 0.09195999801158905 0  0.0403829999268055 0.09229400008916855 0  0.03938800096511841 0.09279800206422806 0  0.02336099930107594 0.1009159982204437 0  0.02354799956083298 0.100043997168541 0  0.02434200048446655 0.1004199981689453 0  0.02246100082993507 0.1013720035552979 0  0.02264700084924698 0.1003160029649734 0  -0.007286000065505505 0.09612800180912018 0  -0.006376000121235847 0.09625399857759476 0  -0.00698000006377697 0.09697099775075912 0  -0.006058000028133392 0.09710600227117538 0  -0.01790999993681908 0.0970349982380867 0  -0.01822699978947639 0.09639199823141098 0  -0.01722799986600876 0.09649699926376343 0  -0.0188209991902113 0.09720399975776672 0  -0.01499000005424023 0.1024729982018471 0  -0.01527400035411119 0.1032790020108223 0  -0.01573799923062325 0.1026019975543022 0  -0.01085800025612116 0.09513299912214279 0  -0.01004199963063002 0.0951630026102066 0  -0.01063599996268749 0.09589400142431259 0  -0.01167200040072203 0.0951090008020401 0  -0.01107800006866455 0.09437999874353409 0  -0.01189200021326542 0.0943560004234314 0  -0.0142620000988245 0.09723000228404999 0  -0.01481600012630224 0.09792999923229218 0  -0.01511500030755997 0.09719599783420563 0  -0.01308500021696091 0.0958079993724823 0  -0.01392600033432245 0.09578900039196014 0  -0.01332299970090389 0.09506700187921524 0  0.01053399965167046 0.0929810032248497 0  0.01146699953824282 0.09292399883270264 0  0.01089899986982346 0.09373799711465836 0  0.007362000178545713 0.07835999876260757 0  0.007899999618530273 0.07750900089740753 0  0.008294000290334225 0.07830300182104111 0  -0.007449999917298555 0.01727999933063984 0  -0.006622999906539917 0.01751199923455715 0  -0.008329000324010849 0.01714899949729443 0  -0.009247000329196453 0.01701200008392334 0  -0.01295999996364117 0.01688000001013279 0  -0.01323200017213821 0.01795700006186962 0  -0.01384800020605326 0.01706000044941902 0  -0.01238999981433153 0.01778599992394447 0  -0.01242499984800816 0.01880900003015995 0  -0.01155500020831823 0.01797699928283691 0  -0.01197999995201826 0.02173300087451935 0  -0.01246600039303303 0.02077499963343143 0  -0.01150400005280972 0.02082999981939793 0  -0.01102299988269806 0.01998599991202354 0  -0.01046899985522032 0.02083499915897846 0  -0.01198800001293421 0.01982899941504002 0  -0.01295499969273806 0.02173699997365475 0  -0.01441700011491776 0.02094700001180172 0  -0.0149320000782609 0.02190499939024448 0  -0.01393499970436096 0.02180800028145313 0  -0.008954999968409538 0.01986799947917461 0  -0.01093799993395805 0.03071399964392185 0  -0.01144899986684322 0.02984200045466423 0  -0.01042700000107288 0.02980099990963936 0  -0.005342000164091587 0.02956699952483177 0  -0.005849000066518784 0.03048899956047535 0  -0.00635500019416213 0.02962099947035313 0  -0.007977000437676907 0.01994699984788895 0  -0.005450999829918146 0.01943800039589405 0  -0.006442999932914972 0.01926000043749809 0  -0.005652000196278095 0.01859200000762939 0  -0.005729000084102154 0.01776299998164177 0  -0.004739999771118164 0.01803999952971935 0  0.04172199964523315 0.08816699683666229 0  0.04256799817085266 0.0876849964261055 0  0.04220100119709969 0.08878199756145477 0  0.04122199863195419 0.08893699944019318 0  0.01627600006759167 0.05903000012040138 0  0.01729799993336201 0.05893699824810028 0  0.01682600006461143 0.05982400104403496 0  0.02980400063097477 0.04416200146079063 0  0.03027799911797047 0.04311899840831757 0  0.03073599934577942 0.04384399950504303 0  0.03180700168013573 0.04830100014805794 0  0.03270300105214119 0.0476280003786087 0  0.03300999850034714 0.04835300147533417 0  0.03145600110292435 0.05167600139975548 0  0.03054800070822239 0.05177399888634682 0  0.03108800016343594 0.0508509986102581 0  0.03069099970161915 0.05005599930882454 0  0.03166799992322922 0.04993100091814995 0  0.03013800084590912 0.05096599832177162 0  0.02960800006985664 0.05187699943780899 0  0.02969799935817719 0.05019500106573105 0  0.02919100038707256 0.04944200068712234 0  0.02869600057601929 0.05031700059771538 0  0.02817099913954735 0.04954899847507477 0  0.03920799866318703 0.09047400206327438 0  0.03824099898338318 0.0905349999666214 0  0.03881999850273132 0.0897350013256073 0  0.03787500038743019 0.08976399898529053 0  0.008321000263094902 0.0247380007058382 0  0.009076000191271305 0.02519899979233742 0  0.008321999572217464 0.02580299973487854 0  0.009146000258624554 0.02615899965167046 0  0.02768499962985516 0.05042500048875809 0  0.02368799969553947 0.05247199907898903 0  0.02321100048720837 0.05335700139403343 0  0.02266599982976913 0.05255800113081932 0  0.02422299981117249 0.05326800048351288 0  0.03004099987447262 0.05268200114369392 0  0.01909900084137917 0.03571199998259544 0  0.01822200044989586 0.0355679988861084 0  0.01864299923181534 0.03468300029635429 0  0.01361399982124567 0.04090400040149689 0  0.0126759996637702 0.04090400040149689 0  0.01314499974250793 0.04002000018954277 0  0.0122060002759099 0.04002099856734276 0  0.01173700019717216 0.04090400040149689 0  0.01173599995672703 0.03913899883627892 0  0.0126759996637702 0.03913800045847893 0  0.01314499974250793 0.04178899899125099 0  -0.02825199998915195 0.07235600054264069 0  -0.02713900059461594 0.07270299643278122 0  -0.02814299985766411 0.07314900308847427 0  -0.02644399926066399 0.07198700308799744 0  -0.02605899982154369 0.0728129968047142 0  -0.02501199953258038 0.07292500138282776 0  -0.02550400048494339 0.07368099689483643 0  -0.02442000061273575 0.07218199968338013 0  -0.02398600056767464 0.0730229988694191 0  -0.0245169997215271 0.07377699762582779 0  -0.0284429993480444 0.07059299945831299 0  -0.01887300051748753 0.08494900166988373 0  -0.01987900026142597 0.08488500118255615 0  -0.0181060004979372 0.09342099726200104 0  -0.01900400035083294 0.0934239998459816 0  -0.01843699999153614 0.09268099814653397 0  -0.01933100074529648 0.09268800169229507 0  -0.01877499930560589 0.09193400293588638 0  -0.01733000017702579 0.09577199816703796 0  -0.0164950005710125 0.09578400105237961 0  -0.0163160003721714 0.09650599956512451 0  -0.01365900039672852 0.08754999935626984 0  -0.01148100011050701 0.0814799964427948 0  -0.01047199964523315 0.08155299723148346 0  -0.01095100026577711 0.08231300115585327 0  -0.01046099979430437 0.08312900364398956 0  -0.009965999983251095 0.08237600326538086 0  -0.01563199982047081 0.07952100038528442 0  -0.01617000065743923 0.07864899933338165 0  -0.01516100019216537 0.07873299717903137 0  -0.01415199972689152 0.07881499826908112 0  -0.01467499975115061 0.07794500142335892 0  -0.01847399957478046 0.08258599787950516 0  -0.01801799982786179 0.08180300146341324 0  -0.01903600059449673 0.08172299712896347 0  -0.02005499973893166 0.08164499700069427 0  -0.02507800050079823 0.07453999668359756 0  -0.02561100013554096 0.07695899903774261 0  -0.0251690000295639 0.07781200110912323 0  -0.02333099953830242 0.02470000088214874 0  -0.02367999963462353 0.02536999993026257 0  -0.02391500025987625 0.02603200078010559 0  -0.02416899986565113 0.02674400061368942 0  -0.02319999970495701 0.026613999158144 0  -0.01996699906885624 0.02399099990725517 0  -0.01896299980580807 0.02397399954497814 0  -0.02097400091588497 0.02397600002586842 0  -0.02261999994516373 0.02333400025963783 0  -0.01741299964487553 0.018223000690341 0  -0.01703199930489063 0.01898800022900105 0  -0.01821999996900558 0.01858999952673912 0  -0.01658499985933304 0.0178459994494915 0  -0.01841799914836884 0.0230880007147789 0  -0.0164560005068779 
[...]
<PointData  Vectors="velocity"> 
<DataArray  type="Float64"  Name="velocity"  NumberOfComponents="3" format="ascii">8.5100001888349652e-04 9.1100001009181142e-04 0.0000000000000000e+00  7.5399997876957059e-04 8.2199997268617153e-04 0.0000000000000000e+00  -2.2670000325888395e-03 1.5109999803826213e-03 0.0000000000000000e+00  -2.7970001101493835e-03 2.3070001043379307e-03 0.0000000000000000e+00  -2.0059999078512192e-03 1.2509999796748161e-03 0.0000000000000000e+00  1.8880000570788980e-03 1.8599999602884054e-03 0.0000000000000000e+00  2.0469999872148037e-03 2.0119999535381794e-03 0.0000000000000000e+00  3.4149999264627695e-03 3.1679999083280563e-03 0.0000000000000000e+00  2.2090000566095114e-03 2.1750000305473804e-03 0.0000000000000000e+00  3.2190000638365746e-03 2.9800001066178083e-03 0.0000000000000000e+00  3.6780000664293766e-03 1.9199999514967203e-03 0.0000000000000000e+00  5.1649999804794788e-03 3.1600000802427530e-03 0.0000000000000000e+00  3.7150001153349876e-03 2.1939999423921108e-03 0.0000000000000000e+00  4.5969998463988304e-03 3.1000000890344381e-03 0.0000000000000000e+00  -2.0699999295175076e-03 3.6800000816583633e-03 0.0000000000000000e+00  4.2659998871386051e-03 2.4932000786066055e-02 0.0000000000000000e+00  4.0310001932084560e-03 2.4932000786066055e-02 0.0000000000000000e+00  -4.7500000800937414e-04 1.0800000018207356e-04 0.0000000000000000e+00  -8.4499997319653630e-04 4.0409998036921024e-03 0.0000000000000000e+00  -9.1200001770630479e-04 4.5179999433457851e-03 0.0000000000000000e+00  3.0219999607652426e-03 2.7197999879717827e-02 0.0000000000000000e+00  -3.9843998849391937e-02 -3.1548000872135162e-02 0.0000000000000000e+00  -3.5868998616933823e-02 -2.6696000248193741e-02 0.0000000000000000e+00  -4.1308999061584473e-02 -3.3236999064683914e-02 0.0000000000000000e+00  -1.8339000642299652e-02 -1.5216999687254429e-02 0.0000000000000000e+00  -2.2928999736905098e-02 -2.0771000534296036e-02 0.0000000000000000e+00  -2.0030999556183815e-02 -1.4531999826431274e-02 0.0000000000000000e+00  -2.0795000717043877e-02 -2.1364999935030937e-02 0.0000000000000000e+00  9.5199997304007411e-04 1.1559999547898769e-03 0.0000000000000000e+00  2.2680000402033329e-03 2.3519999813288450e-03 0.0000000000000000e+00  1.5219999477267265e-03 1.8560000462457538e-03 0.0000000000000000e+00  1.2260000221431255e-03 1.8210000125691295e-03 0.0000000000000000e+00  6.4599997131153941e-04 1.0069999843835831e-03 0.0000000000000000e+00  3.0219999607652426e-03 3.1330001074820757e-03 0.0000000000000000e+00  3.4690001048147678e-03 3.3450000919401646e-03 0.0000000000000000e+00  4.7590001486241817e-03 4.2969998903572559e-03 0.0000000000000000e+00  4.4399998150765896e-03 4.1959998197853565e-03 0.0000000000000000e+00  1.2880000285804272e-03 1.3800000306218863e-03 0.0000000000000000e+00  -4.1479999199509621e-03 4.8870001919567585e-03 0.0000000000000000e+00  -3.7779998965561390e-03 3.7779998965561390e-03 0.0000000000000000e+00  -3.3019999973475933e-03 3.0630000401288271e-03 0.0000000000000000e+00  1.0959999635815620e-03 1.1670000385493040e-03 0.0000000000000000e+00  9.5900002634152770e-04 1.0229999898001552e-03 0.0000000000000000e+00  6.2150000594556332e-03 4.9919998273253441e-03 0.0000000000000000e+00  4.5520002022385597e-03 3.8409999106079340e-03 0.0000000000000000e+00  5.6679998524487019e-03 4.5320000499486923e-03 0.0000000000000000e+00  5.1890001632273197e-03 4.3680001981556416e-03 0.0000000000000000e+00  4.0469998493790627e-03 3.5939998924732208e-03 0.0000000000000000e+00  5.6710001081228256e-03 4.7559998929500580e-03 0.0000000000000000e+00  2.9143000021576881e-02 8.2344003021717072e-02 0.0000000000000000e+00  2.7124000713229179e-02 8.2102000713348389e-02 0.0000000000000000e+00  1.8060000613331795e-02 2.4932000786066055e-02 0.0000000000000000e+00  6.0109999030828476e-03 5.4303999990224838e-02 0.0000000000000000e+00  4.4929999858140945e-03 4.9302998930215836e-02 0.0000000000000000e+00  -1.9310000352561474e-03 4.9660999327898026e-02 0.0000000000000000e+00  -1.1981900036334991e-01 -1.7458999529480934e-02 0.0000000000000000e+00  -1.1752700060606003e-01 -1.3314000330865383e-02 0.0000000000000000e+00  -1.1780399829149246e-01 -1.2861000373959541e-02 0.0000000000000000e+00  -1.2151300162076950e-01 -2.1184999495744705e-02 0.0000000000000000e+00  -1.1937099695205688e-01 -1.7010999843478203e-02 0.0000000000000000e+00  -3.1042000278830528e-02 -3.5369001328945160e-02 0.0000000000000000e+00  -3.4928001463413239e-02 -4.1064001619815826e-02 0.0000000000000000e+00  -3.2848998904228210e-02 -3.3872999250888824e-02 0.0000000000000000e+00  -3.6928001791238785e-02 -3.9349999278783798e-02 0.0000000000000000e+00  8.0639999359846115e-03 1.9145999103784561e-02 0.0000000000000000e+00  7.3079997673630714e-03 1.8520999699831009e-02 0.0000000000000000e+00  4.8630000092089176e-03 1.6408000141382217e-02 0.0000000000000000e+00  1.4600000344216824e-02 2.4932000786066055e-02 0.0000000000000000e+00  9.6490001305937767e-03 1.9951999187469482e-02 0.0000000000000000e+00  1.3598999939858913e-02 2.6962999254465103e-02 0.0000000000000000e+00  1.3598999939858913e-02 2.6693999767303467e-02 0.0000000000000000e+00  -1.7604999244213104e-02 -1.4891999773681164e-02 0.0000000000000000e+00  -2.0486999303102493e-02 -2.0231999456882477e-02 0.0000000000000000e+00  -1.8197000026702881e-02 -1.3775000348687172e-02 0.0000000000000000e+00  -1.4822999946773052e-02 -1.0278999805450439e-02 0.0000000000000000e+00  -1.9912000745534897e-02 -1.6448000445961952e-02 0.0000000000000000e+00  -1.6837000846862793e-02 -1.1637999676167965e-02 0.0000000000000000e+00  -2.0039998926222324e-03 8.6840000003576279e-03 0.0000000000000000e+00  6.2800000887364149e-04 1.2234999798238277e-02 0.0000000000000000e+00  6.6999997943639755e-04 1.1807999573647976e-02 0.0000000000000000e+00  -1.0010999627411366e-02 -2.2899999748915434e-04 0.0000000000000000e+00  -7.4430000968277454e-03 3.2909999135881662e-03 0.0000000000000000e+00  -9.3569997698068619e-03 -1.2270000297576189e-03 0.0000000000000000e+00  -6.9950997829437256e-02 -4.1131000965833664e-02 0.0000000000000000e+00  -6.8865999579429626e-02 -3.4430000931024551e-02 0.0000000000000000e+00  -7.5965002179145813e-02 -4.1937999427318573e-02 0.0000000000000000e+00  -4.6287000179290771e-02 2.1048000082373619e-02 0.0000000000000000e+00  -3.3085998147726059e-02 2.8294000774621964e-02 0.0000000000000000e+00  -4.1877999901771545e-02 3.0867999419569969e-02 0.0000000000000000e+00  -2.2670000325888395e-03 -7.5599999399855733e-04 0.0000000000000000e+00  -2.2670000325888395e-03 -7.5599999399855733e-04 0.0000000000000000e+00  -2.2670000325888395e-03 -7.5599999399855733e-04 0.0000000000000000e+00  -2.2670000325888395e-03 -7.5599999399855733e-04 0.0000000000000000e+00  -2.2670000325888395e-03 0.0000000000000000e+00 0.0000000000000000e+00  2.0099999383091927e-03 1.1869999580085278e-03 0.0000000000000000e+00  -2.0190000068396330e-03 0.0000000000000000e+00 0.0000000000000000e+00  2.2040000185370445e-03 1.1780000058934093e-03 0.0000000000000000e+00  3.2879998907446861e-03 2.2460001055151224e-03 0.0000000000000000e+00  2.7399999089539051e-03 1.5859999693930149e-03 0.0000000000000000e+00  8.4720002487301826e-03 6.3410000875592232e-03 0.0000000000000000e+00  6.5239998511970043e-03 4.9140001647174358e-03 0.0000000000000000e+00  6.6960002295672894e-03 5.0630001351237297e-03 0.0000000000000000e+00  5.0479997880756855e-03 3.8370001129806042e-03 0.0000000000000000e+00  6.4960001036524773e-03 4.9769999459385872e-03 0.0000000000000000e+00  4.7149998135864735e-03 3.5319998860359192e-03 0.0000000000000000e+00  8.2799997180700302e-03 6.1960001476109028e-03 0.0000000000000000e+00  6.1420002020895481e-03 4.7419997863471508e-03 0.0000000000000000e+00  7.2960001416504383e-03 5.6349998340010643e-03 0.0000000000000000e+00  8.0000003799796104e-03 6.0399998910725117e-03 0.0000000000000000e+00  5.5379997938871384e-03 3.8560000248253345e-03 0.0000000000000000e+00  2.2154999896883965e-02 1.2405999936163425e-02 0.0000000000000000e+00  1.9975999370217323e-02 1.3020000420510769e-02 0.0000000000000000e+00  2.2835999727249146e-02 1.3499000109732151e-02 0.0000000000000000e+00  3.3257000148296356e-02 1.2107999995350838e-02 0.0000000000000000e+00  3.5994999110698700e-02 1.2242999859154224e-02 0.0000000000000000e+00  3.1750001013278961e-02 1.2071999721229076e-02 0.0000000000000000e+00  5.9520001523196697e-03 3.5939998924732208e-03 0.0000000000000000e+00  7.7729998156428337e-03 2.2199999075382948e-03 0.0000000000000000e+00  6.6530001349747181e-03 2.5160000659525394e-03 0.0000000000000000e+00  4.4639999978244305e-03 1.1510000331327319e-03 0.0000000000000000e+00  -2.2670000325888395e-03 -7.5599999399855733e-04 0.0000000000000000e+00  -2.2670000325888395e-03 -7.5599999399855733e-04 0.0000000000000000e+00  2.9668999835848808e-02 6.3403002917766571e-02 0.0000000000000000e+00  2.9751999303698540e-02 6.0031000524759293e-02 0.0000000000000000e+00  2.7520999312400818e-02 5.9337999671697617e-02 0.0000000000000000e+00  2.7039000764489174e-02 6.3340000808238983e-02 0.0000000000000000e+00  5.0753999501466751e-02 5.0774998962879181e-02 0.0000000000000000e+00  4.8840001225471497e-02 5.9677001088857651e-02 0.0000000000000000e+00  4.8548001796007156e-02 5.7385001331567764e-02 0.0000000000000000e+00  1.7054000869393349e-02 2.1255999803543091e-02 0.0000000000000000e+00  1.0298999957740307e-02 1.1888000182807446e-02 0.0000000000000000e+00  1.0053999722003937e-02 1.2378999963402748e-02 0.0000000000000000e+00  1.5999000519514084e-02 3.1624000519514084e-02 0.0000000000000000e+00  8.8020004332065582e-03 1.4883000403642654e-02 0.0000000000000000e+00  8.5650002583861351e-03 1.5356999821960926e-02 0.0000000000000000e+00  2.1487999707460403e-02 5.1791999489068985e-02 0.0000000000000000e+00  2.5785999372601509e-02 5.8336000889539719e-02 0.0000000000000000e+00  2.2670999169349670e-02 4.9655999988317490e-02 0.0000000000000000e+00  2.3866999894380569e-02 4.7756001353263855e-02 0.0000000000000000e+00  1.8906999379396439e-02 4.0954999625682831e-02 0.0000000000000000e+00  2.7460999786853790e-02 5.6364998221397400e-02 0.0000000000000000e+00  3.0471999198198318e-02 6.4801998436450958e-02 0.0000000000000000e+00  2.9215000569820404e-02 5.4636999964714050e-02 0.0000000000000000e+00  3.2003998756408691e-02 5.2763000130653381e-02 0.0000000000000000e+00  3.4951999783515930e-02 6.1023000627756119e-02 0.0000000000000000e+00  3.8136001676321030e-02 5.8963000774383545e-02 0.0000000000000000e+00  1.7495000734925270e-02 6.5113000571727753e-02 0.0000000000000000e+00  1.6653999686241150e-02 6.8414002656936646e-02 0.0000000000000000e+00  2.2687999531626701e-02 7.0216000080108643e-02 0.0000000000000000e+00  2.2471999749541283e-02 7.3597997426986694e-02 0.0000000000000000e+00  3.2560001127421856e-03 3.4910000395029783e-03 0.0000000000000000e+00  3.5089999437332153e-03 3.9949999190866947e-03 0.0000000000000000e+00  8.4779998287558556e-03 5.3719999268651009e-03 0.0000000000000000e+00  9.2000002041459084e-03 5.9340000152587891e-03 0.0000000000000000e+00  4.0925998240709305e-02 6.6403001546859741e-02 0.0000000000000000e+00  5.6492000818252563e-02 8.4279000759124756e-02 0.0000000000000000e+00  5.5321000516414642e-02 8.6090996861457825e-02 0.0000000000000000e+00  5.9448000043630600e-02 8.2387998700141907e-02 0.0000000000000000e+00  5.2496001124382019e-02 8.7421998381614685e-02 0.0000000000000000e+00  2.8269000351428986e-02 6.6706001758575439e-02 0.0000000000000000e+00  2.9116999357938766e-02 1.9239999353885651e-02 0.0000000000000000e+00  3.1250998377799988e-02 2.0213000476360321e-02 0.0000000000000000e+00  2.4853000417351723e-02 1.6494000330567360e-02 0.0000000000000000e+00  7.6416000723838806e-02 3.4223999828100204e-02 0.0000000000000000e+00  7.7578999102115631e-02 3.2372001558542252e-02 0.0000000000000000e+00  7.3383003473281860e-02 3.2148998230695724e-02 0.0000000000000000e+00  7.4891000986099243e-02 3.0703000724315643e-02 0.0000000000000000e+00  7.8552000224590302e-02 3.0711999163031578e-02 0.0000000000000000e+00  7.1746997535228729e-02 2.9078999534249306e-02 0.0000000000000000e+00  7.0239998400211334e-02 3.0022000893950462e-02 0.0000000000000000e+00  8.0127999186515808e-02 3.3971000462770462e-02 0.0000000000000000e+00  3.2780000474303961e-03 2.6943000033497810e-02 0.0000000000000000e+00  -1.5279999934136868e-03 2.8009999077767134e-03 0.0000000000000000e+00  3.5119999665766954e-03 2.6708999648690224e-02 0.0000000000000000e+00  -3.2399999327026308e-04 -1.0750000365078449e-03 0.0000000000000000e+00  -8.2700001075863838e-04 -2.6249999646097422e-03 0.0000000000000000e+00  -9.2800002312287688e-04 -9.4320001080632210e-03 0.0000000000000000e+00  -1.8240000354126096e-03 -5.5940002202987671e-03 0.0000000000000000e+00  -5.3399999160319567e-04 -1.4444000087678432e-02 0.0000000000000000e+00  -1.4009999576956034e-03 -1.6783000901341438e-02 0.0000000000000000e+00  -2.1309999283403158e-03 -1.1850000359117985e-02 0.0000000000000000e+00  2.4939998984336853e-03 2.7197999879717827e-02 0.0000000000000000e+00  -2.1500999107956886e-02 -1.3825000263750553e-02 0.0000000000000000e+00  -1.6953999176621437e-02 -8.8780000805854797e-03 0.0000000000000000e+00  9.5199997304007411e-04 1.2438000179827213e-02 0.0000000000000000e+00  4.1299997828900814e-03 1.4902999624609947e-02 0.0000000000000000e+00  -3.0300000798888505e-04 1.1557999998331070e-02 0.0000000000000000e+00  2.1959999576210976e-03 1.4063999988138676e-02 0.0000000000000000e+00  2.8000000384054147e-05 1.1017999611794949e-02 0.0000000000000000e+00  2.4800000246614218e-03 1.5112999826669693e-02 0.0000000000000000e+00  7.6999996963422745e-05 1.2683999724686146e-02 0.0000000000000000e+00  1.7010000301524997e-03 1.3837999664247036e-02 0.0000000000000000e+00  -3.7037998437881470e-02 -2.8258999809622765e-02 0.0000000000000000e+00  -6.9733999669551849e-02 -7.6566003262996674e-02 0.0000000000000000e+00  -7.5733996927738190e-02 -7.9856000840663910e-02 0.0000000000000000e+00  -7.3216997087001801e-02 -7.3578000068664551e-02 0.0000000000000000e+00  -7.5315997004508972e-02 -7.0523999631404877e-02 0.0000000000000000e+00  -7.8953996300697327e-02 -7.6737001538276672e-02 0.0000000000000000e+00  -4.1659001260995865e-02 -6.5057002007961273e-02 0.0000000000000000e+00  -3.6486998200416565e-02 -6.6060997545719147e-02 0.0000000000000000e+00  -4.2116999626159668e-02 -7.2824001312255859e-02 0.0000000000000000e+00  -4.7862999141216278e-02 -7.8985996544361115e-02 0.0000000000000000e+00  -4.2006000876426697e-02 -8.0452002584934235e-02 0.0000000000000000e+00  -2.6099000126123428e-02 -2.7546999976038933e-02 0.0000000000000000e+00  -3.0191000550985336e-02 -3.5007998347282410e-02 0.0000000000000000e+00  -2.4818999692797661e-02 -2.8424000367522240e-02 0.0000000000000000e+00  -2.0163999870419502e-02 -2.2104000672698021e-02 0.0000000000000000e+00  -2.4910001084208488e-03 -7.1550002321600914e-03 0.0000000000000000e+00  -2.6889999862760305e-03 -3.8499999209307134e-04 0.0000000000000000e+00  -3.3269999548792839e-03 -1.5569999814033508e-03 0.0000000000000000e+00  -4.3429997749626637e-03 5.4750000126659870e-03 0.0000000000000000e+00  -4.5329998247325420e-03 6.0439999215304852e-03 0.0000000000000000e+00  -5.0610001198947430e-03 6.5720002166926861e-03 0.0000000000000000e+00  -5.6300000287592411e-03 7.1410001255571842e-03 0.0000000000000000e+00  5.8400002308189869e-04 1.1540000559762120e-03 0.0000000000000000e+00  3.5250000655651093e-03 3.3040000125765800e-03 0.0000000000000000e+00  4.7820000909268856e-03 4.2320000939071178e-03 0.0000000000000000e+00  2.3260000161826611e-03 2.3169999476522207e-03 0.0000000000000000e+00  -3.9570000953972340e-03 4.3159998022019863e-03 0.0000000000000000e+00  -1.5109999803826213e-03 5.1599997095763683e-04 0.0000000000000000e+00  1.3950000284239650e-03 1.3089999556541443e-03 0.0000000000000000e+00  -1.5109999803826213e-03 7.5599999399855733e-04 0.0000000000000000e+00  -1.5109999803826213e-03 2.7099999715574086e-04 0.0000000000000000e+00  4.6230000443756580e-03 4.0620001964271069e-03 0.0000000000000000e+00  6.8279998376965523e-03 5.4660001769661903e-03 0.0000000000000000e+00  8.5089998319745064e-03 6.5339999273419380e-03 0.0000000000000000e+00  7.2960001416504383e-03 5.8229998685419559e-03 0.0000000000000000e+00  1.8718000501394272e-02 1.1591999791562557e-02 0.0000000000000000e+00  2.0476000383496284e-02 1.0390999726951122e-02 0.0000000000000000e+00  1.6349000856280327e-02 9.2630004510283470e-03 0.0000000000000000e+00  8.5730003193020821e-03 6.4249997958540916e-03 0.0000000000000000e+00  1.2601000256836414e-02 9.0600000694394112e-03 0.0000000000000000e+00  1.4554999768733978e-02 1.0064000263810158e-02 0.0000000000000000e+00  1.4375000260770321e-02 1.0427000001072884e-02 0.0000000000000000e+00  1.2267000041902065e-02 8.3560002967715263e-03 0.0000000000000000e+00  1.0304000228643417e-02 7.4140001088380814e-03 0.0000000000000000e+00  1.6413999721407890e-02 1.0716999880969524e-02 0.0000000000000000e+00  1.8485000357031822e-02 1.1153000406920910e-02 0.0000000000000000e+00  1.7908999696373940e-02 1.2012000195682049e-02 0.0000000000000000e+00  1.9860999658703804e-02 5.2620999515056610e-02 0.0000000000000000e+00  1.8184000626206398e-02 4.5768000185489655e-02 0.0000000000000000e+00  1.4379999600350857e-02 4.7269001603126526e-02 0.0000000000000000e+00  3.4724999219179153e-02 8.0006003379821777e-02 0.0000000000000000e+00  3.1491000205278397e-02 7.5785003602504730e-02 0.0000000000000000e+00  3.1741999089717865e-02 7.9204000532627106e-02 0.0000000000000000e+00  4.1055001318454742e-02 1.0182599723339081e-01 0.0000000000000000e+00  4.1189000010490417e-02 1.0460499674081802e-01 0.0000000000000000e+00  4.0467999875545502e-02 1.0505799949169159e-01 0.0000000000000000e+00  1.6620999202132225e-02 2.4932000786066055e-02 0.0000000000000000e+00  -1.6388000920414925e-02 4.8096999526023865e-02 0.0000000000000000e+00  -2.4229999631643295e-02 4.6425998210906982e-02 0.0000000000000000e+00  -1.2624000199139118e-02 5.3433999419212341e-02 0.0000000000000000e+00  -5.1799998618662357e-03 5.5052999407052994e-02 0.0000000000000000e+00  -1.1381000280380249e-02 4.8806998878717422e-02 0.0000000000000000e+00  -6.5919999033212662e-03 4.9396000802516937e-02 0.0000000000000000e+00  2.1607000380754471e-02 7.5796000659465790e-02 0.0000000000000000e+00  2.7819000184535980e-02 7.8282997012138367e-02 0.0000000000000000e+00  2.7055999264121056e-02 8.0323003232479095e-02 0.0000000000000000e+00  3.2145999372005463e-02 8.2572996616363525e-02 0.0000000000000000e+00  1.1359999887645245e-02 5.9551998972892761e-02 0.0000000000000000e+00  2.5820001028478146e-03 5.6473001837730408e-02 0.0000000000000000e+00  2.8540000785142183e-03 6.0394000262022018e-02 0.0000000000000000e+00  -1.8060000147670507e-03 6.0819000005722046e-02 0.0000000000000000e+00  -1.7369999550282955e-03 6.3873998820781708e-02 0.0000000000000000e+00  6.7759999074041843e-03 6.7190997302532196e-02 0.0000000000000000e+00  1.0421999730169773e-02 6.2905997037887573e-02 0.0000000000000000e+00  -1.2257599830627441e-01 -2.7207000181078911e-02 0.0000000000000000e+00  -1.2243799865245819e-01 -2.9386999085545540e-02 0.0000000000000000e+00  -1.2128700315952301e-01 -2.8823999688029289e-02 0.0000000000000000e+00  -1.1938499659299850e-01 -1.9455999135971069e-02 0.0000000000000000e+00  -1.2137299776077271e-01 -2.1403999999165535e-02 0.0000000000000000e+00  -1.2161900103092194e-01 -2.3346999660134315e-02 0.0000000000000000e+00  -1.2241599708795547e-01 -2.4584000930190086e-02 0.0000000000000000e+00  -2.4227000772953033e-02 -2.4256000295281410e-02 0.0000000000000000e+00  -2.2146999835968018e-02 -1.7734000459313393e-02 0.0000000000000000e+00  -2.1153999492526054e-02 -1.9034000113606453e-02 0.0000000000000000e+00  -2.3439999669790268e-02 -2.5606999173760414e-02 0.0000000000000000e+00  -3.3144000917673111e-02 -4.2481999844312668e-02 0.0000000000000000e+00  -5.6609001010656357e-02 -5.9507001191377640e-02 0.0000000000000000e+00  -5.5576000362634659e-02 -6.2121998518705368e-02 0.0000000000000000e+00  -6.1900001019239426e-02 -6.5471999347209930e-02 0.0000000000000000e+00  -3.1468998640775681e-02 -3.1