<?xml version="1.0"?>
<VTKFile type="UnstructuredGrid"  version="0.1"  >
<UnstructuredGrid>
<Piece  NumberOfPoints="6340" NumberOfCells="12376">
<Points>
<DataArray  type="Float64"  NumberOfComponents="3"  format="ascii">-0.0192050002515316 0.0205559991300106 0  -0.01988399960100651 0.02118599973618984 0  -0.02010999992489815 0.02020999975502491 0  -0.02064399980008602 0.02091299928724766 0  -0.01943200081586838 0.01963800005614758 0  -0.01904899999499321 0.02142900042235851 0  -0.01954199932515621 0.02214100025594234 0  -0.01908300071954727 0.02296300046145916 0  -0.01999399997293949 0.02284999936819077 0  -0.01859400048851967 0.02215900085866451 0  -0.00796900037676096 0.01797199994325638 0  -0.008657000027596951 0.01882199943065643 0  -0.008985999971628189 0.0178810004144907 0  -0.009681000374257565 0.01876999996602535 0  -0.02642600052058697 0.07266800105571747 0  -0.02741100080311298 0.07300999760627747 0  -0.02753599919378757 0.07221700251102448 0  -0.02648100070655346 0.06618399918079376 0  -0.02717800065875053 0.06683299690485001 0  -0.02731199935078621 0.06594199687242508 0  -0.02810000069439411 0.06629999727010727 0  -0.01392799988389015 0.08503799885511398 0  -0.01482699997723103 0.0848580002784729 0  -0.01418200042098761 0.0842519998550415 0  -0.02072799950838089 0.07902900129556656 0  -0.01972999982535839 0.07925999909639359 0  -0.020304000005126 0.07990899682044983 0  -0.0201600007712841 0.07837300002574921 0  -0.02161700092256069 0.02415600046515465 0  -0.02078000083565712 0.02433699928224087 0  -0.02113199979066849 0.0250489991158247 0  -0.02144400030374527 0.02577199973165989 0  -0.02198399975895882 0.02487700060009956 0  -0.02028900012373924 0.02523400075733662 0  -0.0199120007455349 0.02446299977600574 0  -0.01902800053358078 0.02457300014793873 0  -0.01941999979317188 0.02534699998795986 0  -0.02126000076532364 0.02342499978840351 0  -0.02217400074005127 0.02328700013458729 0  -0.02163000032305717 0.02221000008285046 0  -0.02115100063383579 0.02157999947667122 0  -0.02087399922311306 0.02265099994838238 0  -0.02037700079381466 0.02192600071430206 0  -0.01594199985265732 0.02190900035202503 0  -0.01644800044596195 0.02102600038051605 0  -0.01545399986207485 0.02102800086140633 0  -0.0168639998883009 0.02200200036168098 0  -0.01777200028300285 0.02198800072073936 0  -0.01729300059378147 0.02287399955093861 0  0.03741500154137611 0.07739099860191345 0  0.03730500116944313 0.07648199796676636 0  0.03842199966311455 0.07659199833869934 0  0.0378430001437664 0.08828700333833694 0  0.03849000111222267 0.08854400366544724 0  0.03745900094509125 0.08903799951076508 0  0.02086899988353252 0.09698600322008133 0  0.02113600075244904 0.09621100127696991 0  0.02188399992883205 0.09650000184774399 0  0.01993699930608273 0.09743200242519379 0  0.02022000029683113 0.09649600088596344 0  -0.009337999857962132 0.0933070033788681 0  -0.008426000364124775 0.09355700016021729 0  -0.009109999984502792 0.09414400160312653 0  -0.008186000399291515 0.09440000355243683 0  -0.02046200074255466 0.09234800189733505 0  -0.02072799950838089 0.09168499708175659 0  -0.01970900036394596 0.09194999933242798 0  -0.02141599915921688 0.09235800057649612 0  -0.0178229995071888 0.09807000309228897 0  -0.01818300038576126 0.09879600256681442 0  -0.0186110008507967 0.09805899858474731 0  -0.0129380002617836 0.09173999726772308 0  -0.01208900008350611 0.09191499650478363 0  -0.01276599988341331 0.09251199662685394 0  -0.01379300002008677 0.09157499670982361 0  -0.01311600022017956 0.09097900241613388 0  -0.01397099997848272 0.09081500023603439 0  -0.01666799932718277 0.09315799921751022 0  -0.01730000041425228 0.09373199939727783 0  -0.01755999960005283 0.09297800064086914 0  -0.01532899960875511 0.09199900180101395 0  -0.01620800048112869 0.09183699637651443 0  -0.01552299968898296 0.09124899655580521 0  0.008945000357925892 0.09068299829959869 0  0.009871999733150005 0.09058599919080734 0  0.009233999997377396 0.09132900089025497 0  0.007182999979704618 0.07801900058984756 0  0.007761000189930201 0.07715299725532532 0  0.008108999580144882 0.07792100310325623 0  -0.007670000195503235 0.01709000021219254 0  -0.006845999974757433 0.01731299981474876 0  -0.008549000136554241 0.01697199977934361 0  -0.009467000141739845 0.016847999766469 0  -0.01315000001341105 0.01679000072181225 0  -0.01340099982917309 0.01787899993360043 0  -0.01400799956172705 0.01698699966073036 0  -0.01257999986410141 0.01769099943339825 0  -0.01260800007730722 0.01872199960052967 0  -0.01175399962812662 0.01786500029265881 0  -0.01214099954813719 0.02165799960494041 0  -0.01262400019913912 0.02070200070738792 0  -0.01168499980121851 0.02073900029063225 0  -0.01121500041335821 0.01987800002098083 0  -0.01066100038588047 0.02072199992835522 0  -0.01217000000178814 0.01974100060760975 0  -0.01308699976652861 0.02167800068855286 0  -0.01451299991458654 0.02090799994766712 0  -0.01497799996286631 0.02186799980700016 0  -0.01403599977493286 0.02176699973642826 0  -0.009165000170469284 0.01971800066530704 0  -0.0110240001231432 0.03067800030112267 0  -0.01152899954468012 0.02980899997055531 0  -0.0105400001630187 0.02975100092589855 0  -0.005516999866813421 0.0294209998100996 0  -0.006020000204443932 0.0303569994866848 0  -0.006527999881654978 0.02949099987745285 0  -0.008186000399291515 0.01978199928998947 0  -0.005671000108122826 0.01923500001430511 0  -0.006659000180661678 0.01906800083816051 0  -0.005874999798834324 0.01838699914515018 0  -0.005956000182777643 0.01755299977958202 0  -0.004970000125467777 0.01782000064849854 0  0.04014600068330765 0.08472400158643723 0  0.04097000136971474 0.0841199979186058 0  0.04059600085020065 0.0853239968419075 0  0.03963299840688705 0.08555600047111511 0  0.01551000028848648 0.05837899819016457 0  0.01648399978876114 0.0581980012357235 0  0.01604299992322922 0.05910699814558029 0  0.02822900004684925 0.04264900088310242 0  0.02866999991238117 0.04159000143408775 0  0.02911099977791309 0.04225200042128563 0  0.03019499965012074 0.04649699851870537 0  0.03104300051927567 0.04575899988412857 0  0.03135000169277191 0.0464400015771389 0  0.02991499938070774 0.04983099922537804 0  0.02904699929058552 0.05000299960374832 0  0.02954900078475475 0.04905299842357635 0  0.02915499918162823 0.04831099882721901 0  0.0300890002399683 0.0481019988656044 0  0.02864000014960766 0.04924900084733963 0  0.02814700081944466 0.05018800124526024 0  0.02820499986410141 0.04853599891066551 0  0.02770799957215786 0.04784800112247467 0  0.02724700048565865 0.04874600097537041 0  0.0267340000718832 0.04804600030183792 0  0.03750000149011612 0.08700799942016602 0  0.03653899952769279 0.08711200207471848 0  0.03718600049614906 0.08637899905443192 0  0.03624900057911873 0.08645399659872055 0  0.007637999951839447 0.02439500018954277 0  0.008345999754965305 0.02485200017690659 0  0.007646999787539244 0.02546600066125393 0  0.008418000303208828 0.02581699937582016 0  0.02628199942409992 0.04894499853253365 0  0.02249499969184399 0.0513090007007122 0  0.02205000072717667 0.05221499875187874 0  0.02152499929070473 0.0514880008995533 0  0.02301199920475483 0.05203500017523766 0  0.02857599966228008 0.05093799903988838 0  0.0179040003567934 0.03514600172638893 0  0.01706800051033497 0.03504600003361702 0  0.0174579992890358 0.03414399921894073 0  0.01274800021201372 0.04056699946522713 0  0.01186299975961447 0.04059400036931038 0  0.01229699980467558 0.03969400003552437 0  0.0114120002835989 0.03972300142049789 0  0.01097800023853779 0.04062100127339363 0  0.01095999963581562 0.03884699940681458 0  0.01184600032866001 0.03882399946451187 0  0.01231400016695261 0.04146699979901314 0  -0.02804899960756302 0.06715299934148788 0  -0.02695799991488457 0.06767000257968903 0  -0.02800299972295761 0.06793300062417984 0  -0.02620399929583073 0.06709600239992142 0  -0.02588200010359287 0.06795399636030197 0  -0.0248390007764101 0.06823500245809555 0  -0.02539299987256527 0.06887999922037125 0  -0.0241870004683733 0.0676179975271225 0  -0.02381600067019463 0.06849800050258636 0  -0.02440899983048439 0.06913600116968155 0  -0.02811699919402599 0.06542400270700455 0  -0.01988600008189678 0.08077599853277206 0  -0.0208749994635582 0.08055499941110611 0  -0.02029800042510033 0.08888799697160721 0  -0.02120600081980228 0.08874499797821045 0  -0.0205450002104044 0.0881349965929985 0  -0.02144999988377094 0.08799599856138229 0  -0.02079500071704388 0.08737500011920929 0  -0.01974599994719028 0.09124399721622467 0  -0.01888800039887428 0.09139300137758255 0  -0.01876199990510941 0.09211300313472748 0  -0.0150950001552701 0.08406099677085876 0  -0.0120449997484684 0.07868800312280655 0  -0.01105100009590387 0.07891900092363358 0  -0.01163799967616796 0.07955899834632874 0  -0.01127600017935038 0.08040499687194824 0  -0.01067099999636412 0.07977499812841415 0  -0.01595400087535381 0.07614199817180634 0  -0.01640900038182735 0.07521799951791763 0  -0.01540500018745661 0.07546299695968628 0  -0.01440099999308586 0.07570800185203552 0  -0.01484599988907576 0.07478400319814682 0  -0.01915800012648106 0.07860899716615677 0  -0.01860499940812588 0.07793699949979782 0  -0.01961199939250946 0.07769399881362915 0  -0.02062099985778332 0.07745199650526047 0  -0.02503200061619282 0.06977800279855728 0  -0.02575100027024746 0.07202699780464172 0  -0.0253749992698431 0.07292699813842773 0  -0.02246100082993507 0.02385799959301949 0  -0.02274000085890293 0.02441000007092953 0  -0.02292400039732456 0.02494099922478199 0  -0.02312199957668781 0.02551300078630447 0  -0.02226199954748154 0.02562999911606312 0  -0.01950999908149242 0.02370700053870678 0  -0.01861800067126751 0.02380700036883354 0  -0.02040600031614304 0.02357699908316135 0  -0.02189400047063828 0.02273299917578697 0  -0.01738999970257282 0.01818300038576126 0  -0.01701599918305874 0.01894900016486645 0  -0.01813999935984612 0.01854999922215939 0  -0.01662099920213223 0.01780599914491177 0  -0.01815799996256828 0.0229640007019043 0  -0
[...]
<PointData  Vectors="velocity"> 
<DataArray  type="Float64"  Name="velocity"  NumberOfComponents="3" format="ascii">1.7269999952986836e-03 2.3380001075565815e-03 0.0000000000000000e+00  1.8810000037774444e-03 2.4220000486820936e-03 0.0000000000000000e+00  -3.0219999607652426e-03 3.7779998965561390e-03 0.0000000000000000e+00  -3.5530000459402800e-03 5.1049999892711639e-03 0.0000000000000000e+00  -2.2420000750571489e-03 2.9970000032335520e-03 0.0000000000000000e+00  4.0770000778138638e-03 4.6589998528361320e-03 0.0000000000000000e+00  5.0479997880756855e-03 5.4560001008212566e-03 0.0000000000000000e+00  8.6650000885128975e-03 8.5429996252059937e-03 0.0000000000000000e+00  6.1150002293288708e-03 6.2979999929666519e-03 0.0000000000000000e+00  7.0839999243617058e-03 7.3719997890293598e-03 0.0000000000000000e+00  -3.3999999868683517e-04 -1.1279999744147062e-03 0.0000000000000000e+00  -1.2199999764561653e-04 -8.4300001617521048e-04 0.0000000000000000e+00  -6.4799998654052615e-04 -7.7400001464411616e-04 0.0000000000000000e+00  -1.1600000289035961e-04 -2.1300000662449747e-04 0.0000000000000000e+00  -3.7599999923259020e-03 -3.4100998193025589e-02 0.0000000000000000e+00  -1.6132000833749771e-02 6.4439997076988220e-02 0.0000000000000000e+00  -1.6366999596357346e-02 6.3970997929573059e-02 0.0000000000000000e+00  -1.0059999767690897e-03 -4.2909000068902969e-02 0.0000000000000000e+00  -2.1379999816417694e-03 -3.7675999104976654e-02 0.0000000000000000e+00  -1.5820000553503633e-03 -3.7305999547243118e-02 0.0000000000000000e+00  -1.8888000398874283e-02 6.0440998524427414e-02 0.0000000000000000e+00  -7.2401002049446106e-02 -6.5122999250888824e-02 0.0000000000000000e+00  -6.4306996762752533e-02 -5.9663001447916031e-02 0.0000000000000000e+00  -7.0619001984596252e-02 -7.0552997291088104e-02 0.0000000000000000e+00  -1.6754999756813049e-02 -5.4301001131534576e-02 0.0000000000000000e+00  -2.1113999187946320e-02 -6.1101000756025314e-02 0.0000000000000000e+00  -1.9437000155448914e-02 -5.3190000355243683e-02 0.0000000000000000e+00  -1.6101000830531120e-02 -6.1216998845338821e-02 0.0000000000000000e+00  4.8279999755322933e-03 4.8819999210536480e-03 0.0000000000000000e+00  8.1960000097751617e-03 7.8030000440776348e-03 0.0000000000000000e+00  7.5110001489520073e-03 7.0489998906850815e-03 0.0000000000000000e+00  6.5319999121129513e-03 6.0620000585913658e-03 0.0000000000000000e+00  3.5399999469518661e-03 3.6319999489933252e-03 0.0000000000000000e+00  1.1665999889373779e-02 1.0323000140488148e-02 0.0000000000000000e+00  1.1312999762594700e-02 1.0300000198185444e-02 0.0000000000000000e+00  1.4458999969065189e-02 1.2589000165462494e-02 0.0000000000000000e+00  1.5488999895751476e-02 1.3055999763309956e-02 0.0000000000000000e+00  4.3680001981556416e-03 4.5630000531673431e-03 0.0000000000000000e+00  -4.5329998247325420e-03 9.7749996930360794e-03 0.0000000000000000e+00  -4.5329998247325420e-03 7.5550000183284283e-03 0.0000000000000000e+00  -4.0569999255239964e-03 6.3649998046457767e-03 0.0000000000000000e+00  3.3470001071691513e-03 3.7040000315755606e-03 0.0000000000000000e+00  2.6310000102967024e-03 3.0990000814199448e-03 0.0000000000000000e+00  1.0154999792575836e-02 9.9409995600581169e-03 0.0000000000000000e+00  6.6220001317560673e-03 7.3600001633167267e-03 0.0000000000000000e+00  7.3930001817643642e-03 8.0049997195601463e-03 0.0000000000000000e+00  9.4299996271729469e-03 9.4569995999336243e-03 0.0000000000000000e+00  8.0129997804760933e-03 8.2689998671412468e-03 0.0000000000000000e+00  1.2072999961674213e-02 1.1258999817073345e-02 0.0000000000000000e+00  6.2850996851921082e-02 1.7613500356674194e-01 0.0000000000000000e+00  5.5566001683473587e-02 1.7139999568462372e-01 0.0000000000000000e+00  -7.0030000060796738e-03 5.4083999246358871e-02 0.0000000000000000e+00  8.8853999972343445e-02 2.0498600602149963e-01 0.0000000000000000e+00  8.7165996432304382e-02 1.9982600212097168e-01 0.0000000000000000e+00  8.3140999078750610e-02 2.0537500083446503e-01 0.0000000000000000e+00  -1.1866000294685364e-01 1.0400500148534775e-01 0.0000000000000000e+00  -1.0839699953794479e-01 1.1442399770021439e-01 0.0000000000000000e+00  -1.0709600150585175e-01 1.1475100368261337e-01 0.0000000000000000e+00  -1.2688100337982178e-01 9.3652002513408661e-02 0.0000000000000000e+00  -1.1705999821424484e-01 1.0589700192213058e-01 0.0000000000000000e+00  -5.3987000137567520e-02 -3.2079998403787613e-02 0.0000000000000000e+00  -5.8851998299360275e-02 -3.8989998400211334e-02 0.0000000000000000e+00  -4.9033999443054199e-02 -2.8156999498605728e-02 0.0000000000000000e+00  -5.3118001669645309e-02 -3.5002000629901886e-02 0.0000000000000000e+00  2.1160000469535589e-03 1.2772000394761562e-02 0.0000000000000000e+00  9.8699994850903749e-04 1.0595999658107758e-02 0.0000000000000000e+00  -1.7399999778717756e-03 1.2804999947547913e-02 0.0000000000000000e+00  9.3480003997683525e-03 7.9101003706455231e-02 0.0000000000000000e+00  1.2272000312805176e-02 3.0042000114917755e-02 0.0000000000000000e+00  2.0734999328851700e-02 8.5657998919487000e-02 0.0000000000000000e+00  1.9388999789953232e-02 8.5119999945163727e-02 0.0000000000000000e+00  -3.9439998567104340e-02 -1.1521999724209309e-02 0.0000000000000000e+00  -4.4178001582622528e-02 -1.7038000747561455e-02 0.0000000000000000e+00  -3.4942001104354858e-02 -6.9530000910162926e-03 0.0000000000000000e+00  -3.4577000886201859e-02 -6.7810001783072948e-03 0.0000000000000000e+00  -4.6071000397205353e-02 -1.6522999852895737e-02 0.0000000000000000e+00  -4.0755998343229294e-02 -1.1470999568700790e-02 0.0000000000000000e+00  -9.5690004527568817e-03 1.5583000145852566e-02 0.0000000000000000e+00  -1.9020000472664833e-03 1.9775999709963799e-02 0.0000000000000000e+00  -6.3519999384880066e-03 1.6418000683188438e-02 0.0000000000000000e+00  -2.1477000787854195e-02 5.1919999532401562e-03 0.0000000000000000e+00  -1.7176000401377678e-02 7.8099998645484447e-03 0.0000000000000000e+00  -2.5002999231219292e-02 1.1279999744147062e-03 0.0000000000000000e+00  -1.1072299629449844e-01 6.0589998029172421e-03 0.0000000000000000e+00  -1.0409100353717804e-01 2.3175999522209167e-02 0.0000000000000000e+00  -1.1596699804067612e-01 8.2120001316070557e-03 0.0000000000000000e+00  2.3817000910639763e-02 3.8139998912811279e-02 0.0000000000000000e+00  3.5585999488830566e-02 5.1525998860597610e-02 0.0000000000000000e+00  3.0741000548005104e-02 5.6230001151561737e-02 0.0000000000000000e+00  4.5329998247325420e-03 3.7779998965561390e-03 0.0000000000000000e+00  4.9939998425543308e-03 4.2389999143779278e-03 0.0000000000000000e+00  4.2909998446702957e-03 3.2939999364316463e-03 0.0000000000000000e+00  4.0389997884631157e-03 2.7900000568479300e-03 0.0000000000000000e+00  2.2670000325888395e-03 1.5109999803826213e-03 0.0000000000000000e+00  -8.5100001888349652e-04 1.1439999798312783e-03 0.0000000000000000e+00  1.7719999887049198e-03 1.2639999622479081e-03 0.0000000000000000e+00  -1.1470000026747584e-03 9.2399999266490340e-04 0.0000000000000000e+00  1.9200000679120421e-04 2.1780000533908606e-03 0.0000000000000000e+00  -1.2309999438002706e-03 7.6199998147785664e-04 0.0000000000000000e+00  1.0743999853730202e-02 7.0969997905194759e-03 0.0000000000000000e+00  6.2549998983740807e-03 5.6679998524487019e-03 0.0000000000000000e+00  6.3889999873936176e-03 4.6060001477599144e-03 0.0000000000000000e+00  3.0559999868273735e-03 2.5839998852461576e-03 0.0000000000000000e+00  6.3060000538825989e-03 3.3720000647008419e-03 0.0000000000000000e+00  2.7819999959319830e-03 3.4759999252855778e-03 0.0000000000000000e+00  1.0842000134289265e-02 8.4030004218220711e-03 0.0000000000000000e+00  7.1879997849464417e-03 7.6649999246001244e-03 0.0000000000000000e+00  1.0885999538004398e-02 1.0126000270247459e-02 0.0000000000000000e+00  1.1074000038206577e-02 9.5669999718666077e-03 0.0000000000000000e+00  2.1899999119341373e-03 3.6700000055134296e-04 0.0000000000000000e+00  6.1370998620986938e-02 2.9797999188303947e-02 0.0000000000000000e+00  6.0083001852035522e-02 2.8758000582456589e-02 0.0000000000000000e+00  6.3010998070240021e-02 2.9653999954462051e-02 0.0000000000000000e+00  6.4465999603271484e-02 2.5169000029563904e-02 0.0000000000000000e+00  7.2164997458457947e-02 2.8989000245928764e-02 0.0000000000000000e+00  6.5453998744487762e-02 2.6652000844478607e-02 0.0000000000000000e+00  2.0580000709742308e-03 -1.1999999696854502e-04 0.0000000000000000e+00  -3.4699999378062785e-04 -1.2610000558197498e-03 0.0000000000000000e+00  -1.5999999595806003e-04 -1.2270000297576189e-03 0.0000000000000000e+00  -8.5700000636279583e-04 -1.5079999575391412e-03 0.0000000000000000e+00  5.4919999092817307e-03 4.7369999811053276e-03 0.0000000000000000e+00  6.0439999215304852e-03 5.2889999933540821e-03 0.0000000000000000e+00  9.3667000532150269e-02 1.8412899971008301e-01 0.0000000000000000e+00  8.8987000286579132e-02 1.7142499983310699e-01 0.0000000000000000e+00  9.3179002404212952e-02 1.8130700290203094e-01 0.0000000000000000e+00  9.5628000795841217e-02 1.9127500057220459e-01 0.0000000000000000e+00  1.1130999773740768e-01 1.1611200124025345e-01 0.0000000000000000e+00  1.1071299761533737e-01 1.2339600175619125e-01 0.0000000000000000e+00  1.0733100026845932e-01 1.2177199870347977e-01 0.0000000000000000e+00  2.3507000878453255e-02 2.5260999798774719e-02 0.0000000000000000e+00  2.2388000041246414e-02 2.1987000480294228e-02 0.0000000000000000e+00  2.2142000496387482e-02 2.2723000496625900e-02 0.0000000000000000e+00  2.6768999174237251e-02 4.4075999408960342e-02 0.0000000000000000e+00  2.1910000592470169e-02 2.6480000466108322e-02 0.0000000000000000e+00  2.1910000592470169e-02 2.7191000059247017e-02 0.0000000000000000e+00  4.2927999049425125e-02 7.6594002544879913e-02 0.0000000000000000e+00  5.1516998559236526e-02 8.5569001734256744e-02 0.0000000000000000e+00  4.3122999370098114e-02 7.2406999766826630e-02 0.0000000000000000e+00  4.3430998921394348e-02 6.8710997700691223e-02 0.0000000000000000e+00  3.4109000116586685e-02 5.9080000966787338e-02 0.0000000000000000e+00  5.2290000021457672e-02 8.1707000732421875e-02 0.0000000000000000e+00  6.0408998280763626e-02 9.4580002129077911e-02 0.0000000000000000e+00  5.3309001028537750e-02 7.8316003084182739e-02 0.0000000000000000e+00  5.5700000375509262e-02 7.4934996664524078e-02 0.0000000000000000e+00  6.3325002789497375e-02 8.7361998856067657e-02 0.0000000000000000e+00  6.6284999251365662e-02 8.3489000797271729e-02 0.0000000000000000e+00  9.5570996403694153e-02 2.0953600108623505e-01 0.0000000000000000e+00  9.5291003584861755e-02 2.1570700407028198e-01 0.0000000000000000e+00  9.8035998642444611e-02 2.1206699311733246e-01 0.0000000000000000e+00  9.8348997533321381e-02 2.1798099577426910e-01 0.0000000000000000e+00  1.2322999536991119e-02 1.1567000299692154e-02 0.0000000000000000e+00  1.2574999593198299e-02 1.1819000355899334e-02 0.0000000000000000e+00  6.8250000476837158e-03 4.9959998577833176e-03 0.0000000000000000e+00  7.0119998417794704e-03 5.4390002042055130e-03 0.0000000000000000e+00  7.3385000228881836e-02 9.5556996762752533e-02 0.0000000000000000e+00  1.0658500343561172e-01 1.2604899704456329e-01 0.0000000000000000e+00  1.0916899889707565e-01 1.3127100467681885e-01 0.0000000000000000e+00  1.1205100268125534e-01 1.2709400057792664e-01 0.0000000000000000e+00  1.0385099798440933e-01 1.3015300035476685e-01 0.0000000000000000e+00  5.9030000120401382e-02 9.8342001438140869e-02 0.0000000000000000e+00  3.3658001571893692e-02 2.2571999579668045e-02 0.0000000000000000e+00  3.7278000265359879e-02 2.5149000808596611e-02 0.0000000000000000e+00  2.6666000485420227e-02 1.8828000873327255e-02 0.0000000000000000e+00  1.2541200220584869e-01 6.8470999598503113e-02 0.0000000000000000e+00  1.2958000600337982e-01 6.7305997014045715e-02 0.0000000000000000e+00  1.1964900046586990e-01 6.3960999250411987e-02 0.0000000000000000e+00  1.2403500080108643e-01 6.3102997839450836e-02 0.0000000000000000e+00  1.3300700485706329e-01 6.5589003264904022e-02 0.0000000000000000e+00  1.1818800121545792e-01 5.8561999350786209e-02 0.0000000000000000e+00  1.1377900093793869e-01 5.9222999960184097e-02 0.0000000000000000e+00  1.3342699408531189e-01 7.1561001241207123e-02 0.0000000000000000e+00  -1.8632000312209129e-02 6.0952000319957733e-02 0.0000000000000000e+00  -2.1740000229328871e-03 -3.8228001445531845e-02 0.0000000000000000e+00  -1.8397999927401543e-02 6.1420001089572906e-02 0.0000000000000000e+00  -1.7709999810904264e-03 -4.4075999408960342e-02 0.0000000000000000e+00  -2.0490000024437904e-03 -4.5230001211166382e-02 0.0000000000000000e+00  -2.3409998975694180e-03 -5.2496001124382019e-02 0.0000000000000000e+00  -2.4329998996108770e-03 -4.7293998301029205e-02 0.0000000000000000e+00  -1.9940000493079424e-03 -5.8485001325607300e-02 0.0000000000000000e+00  -2.8560000937432051e-03 -6.0012001544237137e-02 0.0000000000000000e+00  -2.9410000424832106e-03 -5.4172001779079437e-02 0.0000000000000000e+00  -1.8360000103712082e-02 5.9912998229265213e-02 0.0000000000000000e+00  -2.2144999355077744e-02 -5.1642999053001404e-02 0.0000000000000000e+00  -1.7163999378681183e-02 -4.5591000467538834e-02 0.0000000000000000e+00  -1.0529000312089920e-02 1.9700000120792538e-04 0.0000000000000000e+00  -7.2650001384317875e-03 -1.9500000053085387e-04 0.0000000000000000e+00  -1.0882000438868999e-02 -2.8560000937432051e-03 0.0000000000000000e+00  -7.8079998493194580e-03 -3.2790000550448895e-03 0.0000000000000000e+00  -1.3040999881923199e-02 -6.9530000910162926e-03 0.0000000000000000e+00  -2.6640000287443399e-03 1.0560999624431133e-02 0.0000000000000000e+00  -5.4569998756051064e-03 1.1455999687314034e-02 0.0000000000000000e+00  -4.7980002127587795e-03 1.3737999834120274e-02 0.0000000000000000e+00  -6.2433999031782150e-02 -6.4866997301578522e-02 0.0000000000000000e+00  -5.6912001222372055e-02 -1.2600900232791901e-01 0.0000000000000000e+00  -6.3031002879142761e-02 -1.3045699894428253e-01 0.0000000000000000e+00  -6.4736999571323395e-02 -1.2373100221157074e-01 0.0000000000000000e+00  -7.2985000908374786e-02 -1.2103000283241272e-01 0.0000000000000000e+00  -7.1047998964786530e-02 -1.2782500684261322e-01 0.0000000000000000e+00  -2.5245999917387962e-02 -1.0770899802446365e-01 0.0000000000000000e+00  -2.1692000329494476e-02 -1.0707700252532959e-01 0.0000000000000000e+00  -2.4645999073982239e-02 -1.1471500247716904e-01 0.0000000000000000e+00  -2.7723999693989754e-02 -1.2182199954986572e-01 0.0000000000000000e+00  -2.3367000743746758e-02 -1.2127400189638138e-01 0.0000000000000000e+00  -2.0763000473380089e-02 -6.8717002868652344e-02 0.0000000000000000e+00  -2.2445999085903168e-02 -7.6893001794815063e-02 0.0000000000000000e+00  -1.7922999337315559e-02 -6.9126002490520477e-02 0.0000000000000000e+00  -1.4069000259041786e-02 -6.1668001115322113e-02 0.0000000000000000e+00  -2.9760000761598349e-03 -4.8215001821517944e-02 0.0000000000000000e+00  -4.4809998944401741e-03 -3.9423998445272446e-02 0.0000000000000000e+00  -4.1740001179277897e-03 -3.9944998919963837e-02 0.0000000000000000e+00  -4.5329998247325420e-03 1.0950000025331974e-02 0.0000000000000000e+00  -4.5329998247325420e-03 1.2087999843060970e-02 0.0000000000000000e+00  -4.5329998247325420e-03 1.3319999910891056e-02 0.0000000000000000e+00  -4.5329998247325420e-03 1.4647999778389931e-02 0.0000000000000000e+00  3.7559999618679285e-03 3.7229999434202909e-03 0.0000000000000000e+00  1.0103999637067318e-02 9.5419995486736298e-03 0.0000000000000000e+00  1.2818000279366970e-02 1.1609000153839588e-02 0.0000000000000000e+00  7.2010001167654991e-03 7.1149999275803566e-03 0.0000000000000000e+00  -4.5329998247325420e-03 8.6319996044039726e-03 0.0000000000000000e+00  -2.7700001373887062e-04 1.2720000231638551e-03 0.0000000000000000e+00  1.2850000057369471e-03 2.1220000926405191e-03 0.0000000000000000e+00  -7.5599999399855733e-04 1.5109999803826213e-03 0.0000000000000000e+00  2.1300000662449747e-04 1.0270000202581286e-03 0.0000000000000000e+00  1.0718000121414661e-02 1.0234000161290169e-02 0.0000000000000000e+00  1.3570999726653099e-02 1.2144000269472599e-02 0.0000000000000000e+00  1.8526000902056694e-02 1.4647999778389931e-02 0.0000000000000000e+00  1.6801999881863594e-02 1.4061000198125839e-02 0.0000000000000000e+00  5.5971000343561172e-02 2.7509000152349472e-02 0.0000000000000000e+00  5.5426999926567078e-02 2.7835000306367874e-02 0.0000000000000000e+00  5.0046999007463455e-02 2.5051999837160110e-02 0.0000000000000000e+00  1.0625000111758709e-02 5.7600000873208046e-03 0.0000000000000000e+00  2.1406000480055809e-02 9.2569999396800995e-03 0.0000000000000000e+00  2.7419999241828918e-02 1.1456999927759171e-02 0.0000000000000000e+00  2.8034999966621399e-02 1.2574999593198299e-02 0.0000000000000000e+00  2.0455999299883842e-02 8.0939996987581253e-03 0.0000000000000000e+00  1.5115000307559967e-02 6.1610001139342785e-03 0.0000000000000000e+00  3.3546000719070435e-02 1.3817000202834606e-02 0.0000000000000000e+00  3.9825998246669769e-02 1.6348000615835190e-02 0.0000000000000000e+00  4.0968999266624451e-02 1.7588000744581223e-02 0.0000000000000000e+00  9.2736996710300446e-02 1.8463900685310364e-01 0.0000000000000000e+00  9.0446002781391144e-02 1.7623700201511383e-01 0.0000000000000000e+00  9.0719997882843018e-02 1.8514999747276306e-01 0.0000000000000000e+00  1.0096500068902969e-01 2.1093100309371948e-01 0.0000000000000000e+00  1.0062000155448914e-01 2.0921200513839722e-01 0.0000000000000000e+00  1.0162799805402756e-01 2.1557700634002686e-01 0.0000000000000000e+00  9.8990999162197113e-02 2.2855199873447418e-01 0.0000000000000000e+00  9.9839001893997192e-02 2.3199999332427979e-01 0.0000000000000000e+00  9.6205003559589386e-02 2.2881700098514557e-01 0.0000000000000000e+00  -6.0439999215304852e-03 5.2886001765727997e-02 0.0000000000000000e+00  6.9185003638267517e-02 2.0855399966239929e-01 0.0000000000000000e+00  5.9732999652624130e-02 2.0719900727272034e-01 0.0000000000000000e+00  7.2086997330188751e-02 2.1192300319671631e-01 0.0000000000000000e+00  7.9628996551036835e-02 2.1146699786186218e-01 0.0000000000000000e+00  7.3983997106552124e-02 2.0759700238704681e-01 0.0000000000000000e+00  7.8518003225326538e-02 2.0656299591064453e-01 0.0000000000000000e+00  9.6995003521442413e-02 2.2130000591278076e-01 0.0000000000000000e+00  1.0077799856662750e-01 2.1976600587368011e-01 0.0000000000000000e+00  9.9706999957561493e-02 2.2309100627899170e-01 0.0000000000000000e+00  1.0228800028562546e-01 2.2133199870586395e-01 0.0000000000000000e+00  9.2486999928951263e-02 2.0710599422454834e-01 0.0000000000000000e+00  8.6487002670764923e-02 2.0975999534130096e-01 0.0000000000000000e+00  8.6324997246265411e-02 2.1339100599288940e-01 0.0000000000000000e+00  8.2198999822139740e-02 2.1585200726985931e-01 0.0000000000000000e+00  8.0205000936985016e-02 2.1821600198745728e-01 0.0000000000000000e+00  8.7502002716064453e-02 2.1949100494384766e-01 0.0000000000000000e+00  9.2134997248649597e-02 2.1274299919605255e-01 0.0000000000000000e+00  -1.3883300125598907e-01 7.1989998221397400e-02 0.0000000000000000e+00  -1.4123600721359253e-01 6.1836998909711838e-02 0.0000000000000000e+00  -1.4318400621414185e-01 7.0295996963977814e-02 0.0000000000000000e+00  -1.2093599885702133e-01 1.0118199884891510e-01 0.0000000000000000e+00  -1.2731599807739258e-01 9.4517998397350311e-02 0.0000000000000000e+00  -1.3194000720977783e-01 8.9249998331069946e-02 0.0000000000000000e+00  -1.3473500311374664e-01 8.2900002598762512e-02 0.0000000000000000e+00  -4.4456999748945236e-02 -1.8871000036597252e-02 0.0000000000000000e+00  -3.6297999322414398e-02 -9.1570001095533371e-03 0.0000000000000000e+00  -3.9687998592853546e-02 -1.2888999655842781e-02 0.0000000000000000e+00  -4.8879999667406082e-02 -2.3183999583125114e-02 0.0000000000000000e+00  -6.3360996544361115e-02 -4.3127000331878662e-02 0.0000000000000000e+00  -7.6358996331691742e-02 -6.3786998391151428e-02 0.0000000000000000e+00  -8.0523997545242310e-02 -6.7851997911930084e-02 0.0000000000000000e+00  -8.7064996361732483e-02 -7.2714999318122864e-02 0.0000000000000000e+00  -4.1795998811721802e-02 -2.