<?xml version="1.0"?>
<VTKFile type="UnstructuredGrid"  version="0.1"  >
<UnstructuredGrid>
<Piece  NumberOfPoints="6340" NumberOfCells="12376">
<Points>
<DataArray  type="Float64"  NumberOfComponents="3"  format="ascii">-0.01916299946606159 0.02065600082278252 0  -0.01974399946630001 0.02126600034534931 0  -0.01999000087380409 0.0203000009059906 0  -0.02043299935758114 0.02096400037407875 0  -0.01940499991178513 0.01974200084805489 0  -0.01898599974811077 0.02152400091290474 0  -0.01939699985086918 0.02221599966287613 0  -0.01895100064575672 0.02304100058972836 0  -0.01976599916815758 0.0228899996727705 0  -0.01854700036346912 0.02225499972701073 0  -0.00902399979531765 0.01758299954235554 0  -0.00962700042873621 0.01850100047886372 0  -0.009960999712347984 0.01756300032138824 0  -0.01056999992579222 0.01852099969983101 0  -0.02381899952888489 0.07044599950313568 0  -0.02470199950039387 0.07068599760532379 0  -0.02484500035643578 0.06993299722671509 0  -0.02400700002908707 0.06430400162935257 0  -0.02463800087571144 0.06486900150775909 0  -0.02477199956774712 0.06400799751281738 0  -0.02549000084400177 0.06429000198841095 0  -0.01175300031900406 0.08288999646902084 0  -0.0125749995931983 0.08265300095081329 0  -0.01202499959617853 0.08215200155973434 0  -0.01829900033771992 0.07683400064706802 0  -0.01737700030207634 0.07712800055742264 0  -0.01785499975085258 0.0776820033788681 0  -0.01782600022852421 0.07627300173044205 0  -0.02114599943161011 0.02406499907374382 0  -0.02039700001478195 0.02430500090122223 0  -0.02067499980330467 0.02496200054883957 0  -0.02091800048947334 0.02563400007784367 0  -0.0214380007237196 0.02473000064492226 0  -0.01991900056600571 0.0252080000936985 0  -0.01961999945342541 0.02447300031781197 0  -0.01882800087332726 0.02462000027298927 0  -0.01914200000464916 0.02535999938845634 0  -0.02086500078439713 0.02338900044560432 0  -0.02168099954724312 0.02318399958312511 0  -0.02125000022351742 0.02219000086188316 0  -0.02085299976170063 0.02159499935805798 0  -0.02055699937045574 0.02265599928796291 0  -0.02014899998903275 0.02196799963712692 0  -0.01617000065743923 0.02201200090348721 0  -0.0166619997471571 0.02113400027155876 0  -0.01576199941337109 0.02111399918794632 0  -0.01700000092387199 0.02212399989366531 0  -0.01781599968671799 0.02209700085222721 0  -0.01734899915754795 0.02298299968242645 0  0.04009399935603142 0.07577099651098251 0  0.03984899818897247 0.07489500194787979 0  0.04106999933719635 0.07494699954986572 0  0.04200199991464615 0.08595000207424164 0  0.04273299872875214 0.08615799993276596 0  0.04165299981832504 0.0866129994392395 0  0.02428000047802925 0.0939520001411438 0  0.02449800074100494 0.09327100217342377 0  0.02534300088882446 0.09350299835205078 0  0.02330400049686432 0.09436400234699249 0  0.02352499961853027 0.09354200214147568 0  -0.007584999781101942 0.09070099890232086 0  -0.006808000151067972 0.09098599851131439 0  -0.007400000002235174 0.0914670005440712 0  -0.006610000040382147 0.09175699949264526 0  -0.01731700077652931 0.08904500305652618 0  -0.0175819993019104 0.08842100203037262 0  -0.01665700040757656 0.08873999863862991 0  -0.0181719996035099 0.08897999674081802 0  -0.01492100022733212 0.09441299736499786 0  -0.0152369998395443 0.09504000097513199 0  -0.01560099981725216 0.09435199946165085 0  -0.01067099999636412 0.08906099945306778 0  -0.009934999980032444 0.08927500247955322 0  -0.01052199956029654 0.0897660031914711 0  -0.01142300013452768 0.08885200321674347 0  -0.01083500031381845 0.08836200088262558 0  -0.01158700045198202 0.08815400302410126 0  -0.01392900012433529 0.09007599949836731 0  -0.01447799988090992 0.09054899960756302 0  -0.01471900008618832 0.08984699845314026 0  -0.01276599988341331 0.08912599831819534 0  -0.01354699954390526 0.0889120027422905 0  -0.01295199990272522 0.0884300023317337 0  0.01066699996590614 0.08877100050449371 0  0.01166999991983175 0.08866199851036072 0  0.01104300003498793 0.08932500332593918 0  0.007557000033557415 0.07779499888420105 0  0.008073000237345695 0.07697299867868423 0  0.008558999747037888 0.07768599689006805 0  -0.008779999800026417 0.01665999926626682 0  -0.008019999600946903 0.01681900024414062 0  -0.009592000395059586 0.01660200022161007 0  -0.01044000033289194 0.01654200069606304 0  -0.01381999999284744 0.016720000654459 0  -0.01400899980217218 0.01783899962902069 0  -0.01459600031375885 0.01696199923753738 0  -0.0132659999653697 0.01760300062596798 0  -0.01325500011444092 0.01865500025451183 0  -0.01250199973583221 0.01772999949753284 0  -0.01272199954837561 0.02161299996078014 0  -0.01319800037890673 0.02066699974238873 0  -0.01233800034970045 0.02065400034189224 0  -0.01193699985742569 0.01974700018763542 0  -0.01139899995177984 0.02057299949228764 0  -0.01281700003892183 0.01966699957847595 0  -0.01358400005847216 0.02168099954724312 0  -0.01491400040686131 0.02097100019454956 0  -0.01529799960553646 0.02194900065660477 0  -0.01444800011813641 0.02181899920105934 0  -0.01006199978291988 0.01945200003683567 0  -0.0113730002194643 0.03071999922394753 0  -0.0118659995496273 0.02986199967563152 0  -0.01096499990671873 0.02975399978458881 0  -0.006372000090777874 0.02910199947655201 0  -0.006802000105381012 0.03009499981999397 0  -0.007298999931663275 0.02924700081348419 0  -0.009161000140011311 0.01944700069725513 0  -0.00687899999320507 0.01868800073862076 0  -0.007786000147461891 0.01860000006854534 0  -0.007096000015735626 0.01783699914813042 0  -0.007199000101536512 0.01699000038206577 0  -0.006289999932050705 0.01717999950051308 0  0.04412800073623657 0.08270499855279922 0  0.04491300135850906 0.08206699788570404 0  0.04471199959516525 0.08327099680900574 0  0.04370100051164627 0.08352799713611603 0  0.01425199955701828 0.05714000016450882 0  0.0152350002899766 0.05685099959373474 0  0.01486000046133995 0.05780800059437752 0  0.02600299939513206 0.03999299928545952 0  0.02636200003325939 0.03888700157403946 0  0.02688400074839592 0.03949400037527084 0  0.02846799977123737 0.04360799863934517 0  0.02928799949586391 0.04277800023555756 0  0.02968900091946125 0.04343000054359436 0  0.02854200080037117 0.04699699953198433 0  0.02763500064611435 0.04725600033998489 0  0.02806299924850464 0.04624700173735619 0  0.02756300009787083 0.04554200172424316 0  0.02853300049901009 0.04523399844765663 0  0.02711899951100349 0.04653999954462051 0  0.026698999106884 0.04753600060939789 0  0.02657799981534481 0.04586799815297127 0  0.02597800083458424 0.04523399844765663 0  0.02558599971234798 0.04618300125002861 0  0.02497000060975552 0.04554399847984314 0  0.04150800034403801 0.08484599739313126 0  0.0404679998755455 0.08495999872684479 0  0.04110600054264069 0.084307000041008 0  0.04008999839425087 0.08439599722623825 0  0.005291000008583069 0.0227039996534586 0  0.005948999896645546 0.02312799915671349 0  0.00534099992364645 0.02380499988794327 0  0.006051999982446432 0.02411499992012978 0  0.02458699978888035 0.04649300128221512 0  0.02084599994122982 0.04928800091147423 0  0.0204670000821352 0.05024199932813644 0  0.01985099911689758 0.04958000034093857 0  0.02145699970424175 0.0499499998986721 0  0.0272390004247427 0.04824800044298172 0  0.0152209997177124 0.03329600021243095 0  0.01442100014537573 0.03323600068688393 0  0.01474899984896183 0.03228799998760223 0  0.01060200016945601 0.03911099955439568 0  0.009785999543964863 0.0391709990799427 0  0.0101500004529953 0.03822699934244156 0  0.009332999587059021 0.03828800097107887 0  0.008968999609351158 0.03923099860548973 0  0.00888300035148859 0.03740200027823448 0  0.009696999564766884 0.03734499961137772 0  0.01023800019174814 0.04005499929189682 0  -0.02542899921536446 0.06510599702596664 0  -0.02442299947142601 0.06568200141191483 0  -0.02537300065159798 0.06585200130939484 0  -0.0237440001219511 0.0651950016617775 0  -0.02343500033020973 0.06603699922561646 0  -0.02247699908912182 0.06638500094413757 0  -0.02297200076282024 0.06695599853992462 0  -0.02189099974930286 0.06584800034761429 0  -0.02153700031340122 0.06671500205993652 0  -0.02206799946725368 0.0672760009765625 0  -0.02551399916410446 0.06345199793577194 0  -0.01741800084710121 0.07851599901914597 0  -0.01833200082182884 0.07823300361633301 0  -0.01731500029563904 0.08590500056743622 0  -0.01814099960029125 0.08570100367069244 0  -0.01757499948143959 0.08519600331783295 0  -0.01839799992740154 0.08499599993228912 0  -0.01783899962902069 0.08448100090026855 0  -0.01671800017356873 0.08809600025415421 0  -0.01594099961221218 0.08829700201749802 0  -0.01580700092017651 0.08896200358867645 0  -0.0128619996830821 0.0819069966673851 0  -0.01043200027197599 0.07722300291061401 0  -0.009513000026345253 0.07751700282096863 0  -0.01000399980694056 0.07805900275707245 0  -0.009619000367820263 0.0788630023598671 0  -0.009111000224947929 0.07833400368690491 0  -0.01413900032639503 0.07454700022935867 0  -0.01460300013422966 0.0736439973115921 0  -0.01367700006812811 0.0739549994468689 0  -0.01275200024247169 0.07426600158214569 0  -0.01320100016891956 0.07336500287055969 0  -0.01690099947154522 0.07657299935817719 0  -0.01644000038504601 0.07599599659442902 0  -0.01737000048160553 0.07569000124931335 0  -0.01830199919641018 0.0753839984536171 0  -0.0226259995251894 0.06783699989318848 0  -0.02322899922728539 0.06989999860525131 0  -0.02285300008952618 0.07077299803495407 0  -0.02190900035202503 0.02370999939739704 0  -0.02212999947369099 0.02421999908983707 0  -0.02226700074970722 0.02470899932086468 0  -0.02241599932312965 0.02523599937558174 0  -0.02164800092577934 0.02542999945580959 0  -0.01929700002074242 0.02375099994242191 0  -0.01849899999797344 0.023887999355793 0  -0.02009999938309193 0.02358300052583218 0  -0.02145900018513203 0.02267199940979481 0  -0.01762600056827068 0.01829399913549423 0  -0.01725699938833714 0.01905700005590916 0  -0.01829000003635883 0.01868000067770481 0  -0.01694400049746037 0.01789800077676773 0  -0.0181220006197691 0.02306099981069565 0  -0.016
[...]
<PointData  Vectors="velocity"> 
<DataArray  type="Float64"  Name="velocity"  NumberOfComponents="3" format="ascii">4.6850000508129597e-03 4.3449997901916504e-03 0.0000000000000000e+00  5.0180000253021717e-03 4.6580000780522823e-03 0.0000000000000000e+00  2.2670000325888395e-03 -7.5599999399855733e-04 0.0000000000000000e+00  2.0010001026093960e-03 -1.2860000133514404e-03 0.0000000000000000e+00  2.2670000325888395e-03 -2.3499999952036887e-04 0.0000000000000000e+00  9.5070004463195801e-03 8.3809997886419296e-03 0.0000000000000000e+00  1.1053999885916710e-02 9.6469996497035027e-03 0.0000000000000000e+00  1.7408000305294991e-02 1.4309000223875046e-02 0.0000000000000000e+00  1.1787000112235546e-02 1.0174999944865704e-02 0.0000000000000000e+00  1.5297000296413898e-02 1.2737000361084938e-02 0.0000000000000000e+00  7.0259999483823776e-03 3.2929999288171530e-03 0.0000000000000000e+00  1.1033999733626842e-02 5.3739999420940876e-03 0.0000000000000000e+00  6.2730000354349613e-03 3.1049998942762613e-03 0.0000000000000000e+00  9.9539998918771744e-03 5.2040000446140766e-03 0.0000000000000000e+00  -7.3069999925792217e-03 -3.0573999509215355e-02 0.0000000000000000e+00  -6.5330001525580883e-03 -6.8000000901520252e-03 0.0000000000000000e+00  -6.2979999929666519e-03 -6.8000000901520252e-03 0.0000000000000000e+00  4.8899999819695950e-04 -3.0626000836491585e-02 0.0000000000000000e+00  -8.9899997692555189e-04 -2.6422999799251556e-02 0.0000000000000000e+00  -1.3060000492259860e-03 -2.5702999904751778e-02 0.0000000000000000e+00  -6.0439999215304852e-03 -6.8000000901520252e-03 0.0000000000000000e+00  -2.5251999497413635e-02 -6.0277998447418213e-02 0.0000000000000000e+00  -2.5208000093698502e-02 -5.7638999074697495e-02 0.0000000000000000e+00  -2.5296999141573906e-02 -5.8437000960111618e-02 0.0000000000000000e+00  -2.0555999130010605e-02 -4.5816998928785324e-02 0.0000000000000000e+00  -2.2567000240087509e-02 -4.8517998307943344e-02 0.0000000000000000e+00  -2.1507000550627708e-02 -4.5325998216867447e-02 0.0000000000000000e+00  -2.1147999912500381e-02 -4.9221999943256378e-02 0.0000000000000000e+00  5.7509997859597206e-03 5.0559998489916325e-03 0.0000000000000000e+00  1.0352999903261662e-02 8.6909998208284378e-03 0.0000000000000000e+00  1.0479000397026539e-02 8.6869997903704643e-03 0.0000000000000000e+00  8.5880002006888390e-03 7.0259999483823776e-03 0.0000000000000000e+00  5.1669999957084656e-03 4.4849999248981476e-03 0.0000000000000000e+00  1.5751000493764877e-02 1.2455999851226807e-02 0.0000000000000000e+00  1.5479999594390392e-02 1.2411000207066536e-02 0.0000000000000000e+00  2.1413000300526619e-02 1.6367999836802483e-02 0.0000000000000000e+00  2.1082000806927681e-02 1.5918999910354614e-02 0.0000000000000000e+00  4.9060001038014889e-03 4.3770000338554382e-03 0.0000000000000000e+00  1.1409999569877982e-03 -3.0060000717639923e-03 0.0000000000000000e+00  1.5109999803826213e-03 -2.2670000325888395e-03 0.0000000000000000e+00  1.7490000464022160e-03 -1.7900000093504786e-03 0.0000000000000000e+00  5.6650000624358654e-03 5.1400000229477882e-03 0.0000000000000000e+00  6.3189999200403690e-03 5.7950001209974289e-03 0.0000000000000000e+00  2.3236000910401344e-02 1.6977999359369278e-02 0.0000000000000000e+00  1.6186999157071114e-02 1.2711999937891960e-02 0.0000000000000000e+00  1.8831999972462654e-02 1.3956000097095966e-02 0.0000000000000000e+00  2.1064000204205513e-02 1.6135999932885170e-02 0.0000000000000000e+00  1.7625000327825546e-02 1.4186999760568142e-02 0.0000000000000000e+00  2.5095999240875244e-02 1.8903000280261040e-02 0.0000000000000000e+00  7.5699001550674438e-02 1.2836000323295593e-01 0.0000000000000000e+00  7.0661999285221100e-02 1.2552000582218170e-01 0.0000000000000000e+00  -5.2519999444484711e-03 1.5866000205278397e-02 0.0000000000000000e+00  1.0314700007438660e-01 1.6723699867725372e-01 0.0000000000000000e+00  9.7758002579212189e-02 1.5499399602413177e-01 0.0000000000000000e+00  1.0519099980592728e-01 1.7629900574684143e-01 0.0000000000000000e+00  -2.1498000249266624e-02 1.1906900256872177e-01 0.0000000000000000e+00  -9.4769997522234917e-03 1.2970599532127380e-01 0.0000000000000000e+00  -7.8050000593066216e-03 1.3488699495792389e-01 0.0000000000000000e+00  -3.3978998661041260e-02 1.0420499742031097e-01 0.0000000000000000e+00  -2.0005000755190849e-02 1.1683200299739838e-01 0.0000000000000000e+00  -3.9524998515844345e-02 -8.3540998399257660e-02 0.0000000000000000e+00  -4.3411999940872192e-02 -8.6333997547626495e-02 0.0000000000000000e+00  -4.5928001403808594e-02 -8.3035998046398163e-02 0.0000000000000000e+00  -5.0082001835107803e-02 -8.5790000855922699e-02 0.0000000000000000e+00  -1.7939999699592590e-02 -3.2901998609304428e-02 0.0000000000000000e+00  -1.6133999451994896e-02 -3.2035999000072479e-02 0.0000000000000000e+00  -1.7443999648094177e-02 -3.6405999213457108e-02 0.0000000000000000e+00  -1.6374999657273293e-02 -7.8010000288486481e-03 0.0000000000000000e+00  -2.2089000791311264e-02 -3.0256999656558037e-02 0.0000000000000000e+00  -1.6855999827384949e-02 -5.2379998378455639e-03 0.0000000000000000e+00  -1.7124999314546585e-02 -6.0459999367594719e-03 0.0000000000000000e+00  -2.4725999683141708e-02 -6.9959998130798340e-02 0.0000000000000000e+00  -2.6368999853730202e-02 -7.3707997798919678e-02 0.0000000000000000e+00  -2.8196999803185463e-02 -7.0180997252464294e-02 0.0000000000000000e+00  -2.3222999647259712e-02 -6.6013999283313751e-02 0.0000000000000000e+00  -2.4782000109553337e-02 -6.9652996957302094e-02 0.0000000000000000e+00  -2.3911999538540840e-02 -6.5782003104686737e-02 0.0000000000000000e+00  -2.4519000202417374e-02 -5.0007000565528870e-02 0.0000000000000000e+00  -2.4287000298500061e-02 -4.5680001378059387e-02 0.0000000000000000e+00  -2.2507000714540482e-02 -4.5779999345541000e-02 0.0000000000000000e+00  -2.2368000820279121e-02 -5.8146998286247253e-02 0.0000000000000000e+00  -2.0924000069499016e-02 -5.3805001080036163e-02 0.0000000000000000e+00  -2.1268000826239586e-02 -5.7794000953435898e-02 0.0000000000000000e+00  -6.2599999364465475e-04 1.9689999520778656e-02 0.0000000000000000e+00  4.7490000724792480e-03 3.4187998622655869e-02 0.0000000000000000e+00  -7.5179999694228172e-03 1.9140999764204025e-02 0.0000000000000000e+00  1.2942799925804138e-01 7.4936002492904663e-02 0.0000000000000000e+00  1.3111299276351929e-01 8.2638002932071686e-02 0.0000000000000000e+00  1.3518600165843964e-01 8.2509003579616547e-02 0.0000000000000000e+00  7.5599999399855733e-04 2.2670000325888395e-03 0.0000000000000000e+00  7.5599999399855733e-04 2.0359999034553766e-03 0.0000000000000000e+00  7.5599999399855733e-04 2.2670000325888395e-03 0.0000000000000000e+00  7.5599999399855733e-04 2.2670000325888395e-03 0.0000000000000000e+00  7.5599999399855733e-04 2.2670000325888395e-03 0.0000000000000000e+00  3.9409999735653400e-03 3.0139998998492956e-03 0.0000000000000000e+00  1.0029999539256096e-03 2.0190000068396330e-03 0.0000000000000000e+00  3.3780001103878021e-03 2.4019998963922262e-03 0.0000000000000000e+00  8.5319997742772102e-03 5.8129997923970222e-03 0.0000000000000000e+00  4.4510001316666603e-03 2.8570001013576984e-03 0.0000000000000000e+00  2.7707999572157860e-02 1.5975000336766243e-02 0.0000000000000000e+00  2.0095000043511391e-02 1.2505000457167625e-02 0.0000000000000000e+00  2.1477999165654182e-02 1.2431999668478966e-02 0.0000000000000000e+00  1.5918999910354614e-02 9.1800000518560410e-03 0.0000000000000000e+00  2.1920999512076378e-02 1.1739999987185001e-02 0.0000000000000000e+00  1.4352000318467617e-02 8.9910002425312996e-03 0.0000000000000000e+00  2.7434000745415688e-02 1.6906000673770905e-02 0.0000000000000000e+00  1.9826000556349754e-02 1.3931999914348125e-02 0.0000000000000000e+00  2.5552000850439072e-02 1.7659999430179596e-02 0.0000000000000000e+00  2.6995999738574028e-02 1.7660999670624733e-02 0.0000000000000000e+00  1.5656000003218651e-02 7.7419998124241829e-03 0.0000000000000000e+00  6.6417001187801361e-02 4.9502998590469360e-02 0.0000000000000000e+00  6.9729000329971313e-02 4.5827001333236694e-02 0.0000000000000000e+00  7.4614003300666809e-02 5.1178999245166779e-02 0.0000000000000000e+00  8.2254000008106232e-02 6.3965998589992523e-02 0.0000000000000000e+00  8.3737999200820923e-02 6.8294003605842590e-02 0.0000000000000000e+00  8.3898000419139862e-02 6.5145999193191528e-02 0.0000000000000000e+00  1.6448000445961952e-02 7.6580001041293144e-03 0.0000000000000000e+00  1.4538999646902084e-02 6.8140001967549324e-03 0.0000000000000000e+00  1.3689000159502029e-02 6.1209998093545437e-03 0.0000000000000000e+00  1.0223000310361385e-02 4.5590000227093697e-03 0.0000000000000000e+00  7.5599999399855733e-04 1.7869999865069985e-03 0.0000000000000000e+00  7.5599999399855733e-04 1.5109999803826213e-03 0.0000000000000000e+00  7.7174998819828033e-02 1.0509300231933594e-01 0.0000000000000000e+00  6.6808000206947327e-02 8.4459997713565826e-02 0.0000000000000000e+00  7.3916003108024597e-02 9.8282001912593842e-02 0.0000000000000000e+00  8.4541000425815582e-02 1.2010800093412399e-01 0.0000000000000000e+00  6.6877000033855438e-02 1.3368600606918335e-01 0.0000000000000000e+00  7.5131997466087341e-02 1.4219899475574493e-01 0.0000000000000000e+00  4.9508001655340195e-02 1.4289499819278717e-01 0.0000000000000000e+00  2.7737999334931374e-02 2.6832999661564827e-02 0.0000000000000000e+00  1.8131999298930168e-02 4.6100001782178879e-03 0.0000000000000000e+00  1.8131999298930168e-02 5.3460001945495605e-03 0.0000000000000000e+00  3.1973000615835190e-02 4.4346999377012253e-02 0.0000000000000000e+00  1.8131999298930168e-02 8.0840000882744789e-03 0.0000000000000000e+00  1.8131999298930168e-02 8.5580004379153252e-03 0.0000000000000000e+00  5.2250999957323074e-02 8.2437999546527863e-02 0.0000000000000000e+00  6.4046002924442291e-02 9.3564003705978394e-02 0.0000000000000000e+00  5.3661998361349106e-02 7.7523000538349152e-02 0.0000000000000000e+00  5.4958999156951904e-02 7.3288999497890472e-02 0.0000000000000000e+00  4.1951000690460205e-02 6.1445001512765884e-02 0.0000000000000000e+00  6.6354997456073761e-02 8.8987000286579132e-02 0.0000000000000000e+00  7.6360002160072327e-02 1.0452000051736832e-01 0.0000000000000000e+00  6.8628996610641479e-02 8.5128001868724823e-02 0.0000000000000000e+00  7.1230001747608185e-02 8.2230001688003540e-02 0.0000000000000000e+00  8.2097999751567841e-02 9.6152000129222870e-02 0.0000000000000000e+00  8.4995001554489136e-02 9.2951998114585876e-02 0.0000000000000000e+00  1.0634300112724304e-01 1.7107899487018585e-01 0.0000000000000000e+00  1.1403799802064896e-01 1.9122700393199921e-01 0.0000000000000000e+00  1.0864599794149399e-01 1.7595799267292023e-01 0.0000000000000000e+00  1.1605300009250641e-01 1.9536300003528595e-01 0.0000000000000000e+00  6.2779998406767845e-03 2.2670000325888395e-03 0.0000000000000000e+00  6.5310001373291016e-03 2.2670000325888395e-03 0.0000000000000000e+00  2.0840000361204147e-03 4.1020000353455544e-03 0.0000000000000000e+00  2.1899999119341373e-03 4.1220001876354218e-03 0.0000000000000000e+00  9.5000997185707092e-02 1.0598800331354141e-01 0.0000000000000000e+00  1.3378299772739410e-01 1.3892699778079987e-01 0.0000000000000000e+00  1.3455100357532501e-01 1.4391200244426727e-01 0.0000000000000000e+00  1.3899700343608856e-01 1.3916799426078796e-01 0.0000000000000000e+00  1.2919099628925323e-01 1.4351999759674072e-01 0.0000000000000000e+00  7.2723001241683960e-02 1.0938599705696106e-01 0.0000000000000000e+00  3.5245999693870544e-02 2.5290999561548233e-02 0.0000000000000000e+00  3.8704000413417816e-02 2.7735000476241112e-02 0.0000000000000000e+00  2.5655999779701233e-02 2.0824000239372253e-02 0.0000000000000000e+00  1.5070199966430664e-01 7.6608002185821533e-02 0.0000000000000000e+00  1.5478600561618805e-01 7.6071999967098236e-02 0.0000000000000000e+00  1.4338299632072449e-01 7.2031997144222260e-02 0.0000000000000000e+00  1.4778399467468262e-01 7.1750998497009277e-02 0.0000000000000000e+00  1.5822699666023254e-01 7.4948996305465698e-02 0.0000000000000000e+00  1.3946099579334259e-01 6.7221999168395996e-02 0.0000000000000000e+00  1.3472899794578552e-01 6.7050002515316010e-02 0.0000000000000000e+00  1.6039200127124786e-01 8.0399997532367706e-02 0.0000000000000000e+00  -6.0439999215304852e-03 -6.8000000901520252e-03 0.0000000000000000e+00  -1.0580000234767795e-03 -2.7826000005006790e-02 0.0000000000000000e+00  -6.0439999215304852e-03 -6.8000000901520252e-03 0.0000000000000000e+00  8.1900000805035233e-04 -3.2120998948812485e-02 0.0000000000000000e+00  4.1899998905137181e-04 -3.4063998609781265e-02 0.0000000000000000e+00  1.5399999683722854e-03 -4.0330000221729279e-02 0.0000000000000000e+00  -1.5709999715909362e-03 -3.7436001002788544e-02 0.0000000000000000e+00  3.7330000195652246e-03 -4.4257998466491699e-02 0.0000000000000000e+00  2.3870000150054693e-03 -4.6179998666048050e-02 0.0000000000000000e+00  -9.2999998014420271e-04 -4.3117001652717590e-02 0.0000000000000000e+00  -6.0439999215304852e-03 -7.0629999972879887e-03 0.0000000000000000e+00  -2.1994000300765038e-02 -4.4863998889923096e-02 0.0000000000000000e+00  -2.0096000283956528e-02 -4.1894000023603439e-02 0.0000000000000000e+00  -1.6542999073863029e-02 -3.5271000117063522e-02 0.0000000000000000e+00  -1.5399999916553497e-02 -3.1135000288486481e-02 0.0000000000000000e+00  -1.6181999817490578e-02 -3.4249998629093170e-02 0.0000000000000000e+00  -1.4903999865055084e-02 -3.0363999307155609e-02 0.0000000000000000e+00  -1.6149999573826790e-02 -3.3443000167608261e-02 0.0000000000000000e+00  -1.6413999721407890e-02 -3.6680001765489578e-02 0.0000000000000000e+00  -1.7327999696135521e-02 -4.0667999535799026e-02 0.0000000000000000e+00  -1.8729999661445618e-02 -4.0819000452756882e-02 0.0000000000000000e+00  -2.5659000501036644e-02 -5.6302998214960098e-02 0.0000000000000000e+00  -2.0588999614119530e-02 -4.8725001513957977e-02 0.0000000000000000e+00  -1.7371000722050667e-02 -4.5120999217033386e-02 0.0000000000000000e+00  -2.0535999909043312e-02 -4.8900999128818512e-02 0.0000000000000000e+00  -2.0469000563025475e-02 -4.9908999353647232e-02 0.0000000000000000e+00  -1.7601000145077705e-02 -4.6287998557090759e-02 0.0000000000000000e+00  -2.0225999876856804e-02 -5.7220000773668289e-02 0.0000000000000000e+00  -1.7679000273346901e-02 -5.8393999934196472e-02 0.0000000000000000e+00  -1.8117999657988548e-02 -5.6846000254154205e-02 0.0000000000000000e+00  -1.7447000369429588e-02 -5.3520001471042633e-02 0.0000000000000000e+00  -1.5174999833106995e-02 -5.5123999714851379e-02 0.0000000000000000e+00  -2.2943999618291855e-02 -5.1364999264478683e-02 0.0000000000000000e+00  -2.3045999929308891e-02 -5.3918998688459396e-02 0.0000000000000000e+00  -2.1251000463962555e-02 -5.2136998623609543e-02 0.0000000000000000e+00  -1.9151000306010246e-02 -4.9525998532772064e-02 0.0000000000000000e+00  -3.1020001042634249e-03 -3.9554998278617859e-02 0.0000000000000000e+00  -5.5370000191032887e-03 -3.4148000180721283e-02 0.0000000000000000e+00  -7.4470001272857189e-03 -3.5819001495838165e-02 0.0000000000000000e+00  9.4499997794628143e-04 -3.3980000298470259e-03 0.0000000000000000e+00  7.5599999399855733e-04 -3.7779998965561390e-03 0.0000000000000000e+00  5.7899998500943184e-04 -4.1299997828900814e-03 0.0000000000000000e+00  3.9000000106170774e-04 -4.5090001076459885e-03 0.0000000000000000e+00  4.4189998880028725e-03 3.7750001065433025e-03 0.0000000000000000e+00  1.6834000125527382e-02 1.3670999556779861e-02 0.0000000000000000e+00  2.3365000262856483e-02 1.8077999353408813e-02 0.0000000000000000e+00  9.9640004336833954e-03 8.4910001605749130e-03 0.0000000000000000e+00  1.3320000143721700e-03 -2.6249999646097422e-03 0.0000000000000000e+00  2.0270000677555799e-03 9.9500000942498446e-04 0.0000000000000000e+00  4.2599998414516449e-03 3.8530000019818544e-03 0.0000000000000000e+00  2.2670000325888395e-03 7.5599999399855733e-04 0.0000000000000000e+00  1.7819999484345317e-03 1.2400000123307109e-03 0.0000000000000000e+00  2.1789999678730965e-02 1.7101999372243881e-02 0.0000000000000000e+00  2.8566999360918999e-02 2.0479999482631683e-02 0.0000000000000000e+00  3.6727998405694962e-02 2.4676999077200890e-02 0.0000000000000000e+00  3.2788001000881195e-02 2.3149000480771065e-02 0.0000000000000000e+00  6.0632999986410141e-02 4.3492998927831650e-02 0.0000000000000000e+00  5.7929001748561859e-02 4.6944998204708099e-02 0.0000000000000000e+00  5.2430998533964157e-02 4.0901999920606613e-02 0.0000000000000000e+00  2.8500000014901161e-02 1.5333999879658222e-02 0.0000000000000000e+00  4.5945998281240463e-02 2.2669000551104546e-02 0.0000000000000000e+00  5.4728999733924866e-02 2.7445999905467033e-02 0.0000000000000000e+00  5.5305998772382736e-02 2.7711000293493271e-02 0.0000000000000000e+00  4.4695999473333359e-02 2.2033000364899635e-02 0.0000000000000000e+00  3.6828000098466873e-02 1.7906000837683678e-02 0.0000000000000000e+00  6.2164001166820526e-02 3.2988999038934708e-02 0.0000000000000000e+00  6.8892002105712891e-02 3.9696998894214630e-02 0.0000000000000000e+00  7.1833997964859009e-02 3.8807000964879990e-02 0.0000000000000000e+00  7.8314997255802155e-02 1.0812699794769287e-01 0.0000000000000000e+00  7.0157997310161591e-02 9.2228002846240997e-02 0.0000000000000000e+00  7.9834997653961182e-02 1.1252000182867050e-01 0.0000000000000000e+00  1.0751699656248093e-01 1.7143699526786804e-01 0.0000000000000000e+00  1.0486800223588943e-01 1.6533499956130981e-01 0.0000000000000000e+00  1.1318700015544891e-01 1.8531200289726257e-01 0.0000000000000000e+00  1.3581599295139313e-01 2.3365299403667450e-01 0.0000000000000000e+00  1.4041000604629517e-01 2.4172900617122650e-01 0.0000000000000000e+00  1.3740900158882141e-01 2.3451200127601624e-01 0.0000000000000000e+00  -4.5329998247325420e-03 1.5866000205278397e-02 0.0000000000000000e+00  1.1225999891757965e-01 2.0817199349403381e-01 0.0000000000000000e+00  1.1219999939203262e-01 2.1871800720691681e-01 0.0000000000000000e+00  1.1608800292015076e-01 2.1636900305747986e-01 0.0000000000000000e+00  1.1363500356674194e-01 2.0225700736045837e-01 0.0000000000000000e+00  1.1035700142383575e-01 1.9794799387454987e-01 0.0000000000000000e+00  1.0836099833250046e-01 1.8803900480270386e-01 0.0000000000000000e+00  1.2125500291585922e-01 2.1087299287319183e-01 0.0000000000000000e+00  1.1823800206184387e-01 1.9953399896621704e-01 0.0000000000000000e+00  1.2364400178194046e-01 2.1488800644874573e-01 0.0000000000000000e+00  1.2023200094699860e-01 2.0344899594783783e-01 0.0000000000000000e+00  1.0458300262689590e-01 1.6845899820327759e-01 0.0000000000000000e+00  1.1010800302028656e-01 1.8622900545597076e-01 0.0000000000000000e+00  1.1434199661016464e-01 1.9852800667285919e-01 0.0000000000000000e+00  1.1823300272226334e-01 2.1356500685214996e-01 0.0000000000000000e+00  1.2122599780559540e-01 2.2511300444602966e-01 0.0000000000000000e+00  1.2104400247335434e-01 2.1745400130748749e-01 0.0000000000000000e+00  1.1162500083446503e-01 1.8651999533176422e-01 0.0000000000000000e+00  -5.8958999812602997e-02 7.2971001267433167e-02 0.0000000000000000e+00  -6.9733001291751862e-02 5.8258000761270523e-02 0.0000000000000000e+00  -6.0596000403165817e-02 6.7077003419399261e-02 0.0000000000000000e+00  -2.5430999696254730e-02 1.0767299681901932e-01 0.0000000000000000e+00  -3.3433999866247177e-02 1.0190399736166000e-01 0.0000000000000000e+00  -3.9563998579978943e-02 9.2813998460769653e-02 0.0000000000000000e+00  -4.6815000474452972e-02 8.8405996561050415e-02 0.0000000000000000e+00  -3.3201999962329865e-02 -7.7275000512599945e-02 0.0000000000000000e+00  -3.5656999796628952e-02 -7.3538996279239655e-02 0.0000000000000000e+00  -3.0579000711441040e-02 -7.3821000754833221e-02 0.0000000000000000e+00  -2.8061000630259514e-02 -7.7062003314495087e-02 0.0000000000000000e+00  -3.6012999713420868e-02 -8.6161002516746521e-02 0.0000000000000000e+00  -7.4474997818470001e-02 -9.2832997441291809e-02 0.0000000000000000e+00  -6.4714998006820679e-02 -9.3731001019477844e-02 0.0000000000000000e+00  -7.2521001100540161e-02 -9.4217002391815186e-02 0.0000000000000000e+00  -5.1552999764680862e-02 -