<?xml version="1.0"?>
<VTKFile type="UnstructuredGrid"  version="0.1"  >
<UnstructuredGrid>
<Piece  NumberOfPoints="6340" NumberOfCells="12376">
<Points>
<DataArray  type="Float64"  NumberOfComponents="3"  format="ascii">-0.01935099996626377 0.02066200040280819 0  -0.02009600028395653 0.02133199945092201 0  -0.02030999958515167 0.02033999934792519 0  -0.02091100066900253 0.02112000063061714 0  -0.0195700004696846 0.01974100060760975 0  -0.01920799911022186 0.0215390007942915 0  -0.01975700072944164 0.02229099906980991 0  -0.0192869994789362 0.02310200035572052 0  -0.02026900090277195 0.02307000011205673 0  -0.01874000020325184 0.02226299978792667 0  -0.007772999815642834 0.01815200038254261 0  -0.008462999947369099 0.01898599974811077 0  -0.008789000101387501 0.01804599910974503 0  -0.009487999603152275 0.0189180001616478 0  -0.02648700028657913 0.07642299681901932 0  -0.0274410005658865 0.07689599692821503 0  -0.02761800028383732 0.07609999924898148 0  -0.02694099955260754 0.06975299865007401 0  -0.02761100046336651 0.07051300257444382 0  -0.02778300084173679 0.06960900127887726 0  -0.02855999954044819 0.0700799971818924 0  -0.01297799963504076 0.08761200308799744 0  -0.01389400009065866 0.08753299713134766 0  -0.01331800036132336 0.08682099729776382 0  -0.02035900019109249 0.08222000300884247 0  -0.01934700086712837 0.08233200013637543 0  -0.01985999941825867 0.08306899666786194 0  -0.0198500007390976 0.08147499710321426 0  -0.02206699922680855 0.02463099919259548 0  -0.02116799913346767 0.02469700016081333 0  -0.02157099917531013 0.02550799958407879 0  -0.0219310000538826 0.02632600069046021 0  -0.02248699963092804 0.02545399963855743 0  -0.02066499926149845 0.02557899989187717 0  -0.02023199945688248 0.0247380007058382 0  -0.01927799917757511 0.02476800046861172 0  -0.01972799934446812 0.02560799941420555 0  -0.02165799960494041 0.02379900030791759 0  -0.02264199964702129 0.02378899976611137 0  -0.022019999101758 0.0225600004196167 0  -0.02148099988698959 0.02186099998652935 0  -0.02121499925851822 0.02294700033962727 0  -0.02065400034189224 0.02214699983596802 0  -0.01591899991035461 0.02195600047707558 0  -0.0164330005645752 0.0210730005055666 0  -0.01539300009608269 0.02107599936425686 0  -0.01688599959015846 0.02205099910497665 0  -0.01785700023174286 0.02206500060856342 0  -0.01736800000071526 0.02294499985873699 0  0.03803899884223938 0.08004800230264664 0  0.03790400177240372 0.07915099710226059 0  0.03904499858617783 0.07934799790382385 0  0.03884699940681458 0.09129200130701065 0  0.03951700031757355 0.09161199629306793 0  0.03852400183677673 0.09211599826812744 0  0.02254300005733967 0.1002269983291626 0  0.02274700067937374 0.09937199950218201 0  0.02352100051939487 0.09973099827766418 0  0.02164500020444393 0.1006830036640167 0  0.0218529999256134 0.09964700043201447 0  -0.007872000336647034 0.09555500000715256 0  -0.006959999911487103 0.09571400284767151 0  -0.007588000036776066 0.09640300273895264 0  -0.006661999970674515 0.09657000005245209 0  -0.0187120009213686 0.09603799879550934 0  -0.01904300041496754 0.09537799656391144 0  -0.0180050004273653 0.09553100168704987 0  -0.01965700089931488 0.0961650013923645 0  -0.01575499959290028 0.1015660017728806 0  -0.01606200076639652 0.1023570001125336 0  -0.01651100069284439 0.1016649976372719 0  -0.01141699962317944 0.0944330021739006 0  -0.01059299986809492 0.09449400007724762 0  -0.01120899990200996 0.09519699960947037 0  -0.01225200016051531 0.09438099712133408 0  -0.01163600012660027 0.09367900341749191 0  -0.012470000423491 0.09362799674272537 0  -0.01492800004780293 0.09639199823141098 0  -0.0155029995366931 0.0970660001039505 0  -0.01580700092017651 0.09632600098848343 0  -0.01370699983090162 0.09502500295639038 0  -0.01457600016146898 0.09497199952602386 0  -0.01395300030708313 0.09427700191736221 0  0.01008000038564205 0.0925849974155426 0  0.01100100018084049 0.09251999855041504 0  0.01042199973016977 0.09332200139760971 0  0.007284000050276518 0.07829800248146057 0  0.007830999791622162 0.07742500305175781 0  0.008204000070691109 0.07823300361633301 0  -0.007470000069588423 0.01727999933063984 0  -0.006645999848842621 0.01750900037586689 0  -0.008348999544978142 0.01714899949729443 0  -0.009266999550163746 0.01701200008392334 0  -0.01298000011593103 0.01689000055193901 0  -0.01324599981307983 0.01796700060367584 0  -0.0138579998165369 0.01706999912858009 0  -0.01240899972617626 0.01779500022530556 0  -0.01244399975985289 0.01881800033152103 0  -0.0115750003606081 0.01798300072550774 0  -0.01199399959295988 0.02174199931323528 0  -0.01247799955308437 0.02078500017523766 0  -0.01152299996465445 0.02083900012075901 0  -0.01104199979454279 0.01999199949204922 0  -0.01048799976706505 0.02084000036120415 0  -0.01200699992477894 0.0198379997164011 0  -0.01295899972319603 0.02174600027501583 0  -0.01440799981355667 0.0209560003131628 0  -0.01491000037640333 0.0219149999320507 0  -0.01392900012433529 0.02181800082325935 0  -0.008973999880254269 0.01986799947917461 0  -0.01093299966305494 0.0307219997048378 0  -0.01144099980592728 0.02985000051558018 0  -0.01043100003153086 0.02980899997055531 0  -0.005357999820262194 0.02956699952483177 0  -0.00586399994790554 0.03048899956047535 0  -0.006370000075548887 0.02962099947035313 0  -0.007996000349521637 0.01994699984788895 0  -0.005477000027894974 0.01943100057542324 0  -0.006465000100433826 0.01925699971616268 0  -0.005677999928593636 0.01858600042760372 0  -0.005756000056862831 0.01775600016117096 0  -0.004769999999552965 0.01803000085055828 0  0.04092400148510933 0.087506003677845 0  0.04176300019025803 0.08697299659252167 0  0.04138600081205368 0.08813700079917908 0  0.04041900113224983 0.08831600099802017 0  0.01609599962830544 0.05883200094103813 0  0.01710399985313416 0.0587179996073246 0  0.01663899980485439 0.05961300060153008 0  0.02941999956965446 0.04371900111436844 0  0.0298870000988245 0.04267099872231483 0  0.03033499978482723 0.04337900131940842 0  0.03140199929475784 0.047775998711586 0  0.03228599950671196 0.04708399996161461 0  0.03259700164198875 0.04779599979519844 0  0.03107799962162971 0.05113700032234192 0  0.03017700091004372 0.05125899985432625 0  0.03070599958300591 0.05032800137996674 0  0.03030700050294399 0.04954800009727478 0  0.03127500042319298 0.0493989996612072 0  0.02976400032639503 0.05046600103378296 0  0.02924400009214878 0.05138599872589111 0  0.02932200022041798 0.04971199855208397 0  0.02881699986755848 0.04897800087928772 0  0.02833000011742115 0.04986000061035156 0  0.0278099998831749 0.04911199957132339 0  0.03840000182390213 0.08984199911355972 0  0.03744500130414963 0.08991099894046783 0  0.03803399950265884 0.08912099897861481 0  0.03710100054740906 0.0891600027680397 0  0.008132999762892723 0.02468499913811684 0  0.008867000229656696 0.02514199912548065 0  0.008135000243782997 0.02575100027024746 0  0.008937000297009945 0.02610200084745884 0  0.02733200043439865 0.04999399930238724 0  0.02339399978518486 0.05213199928402901 0  0.02292400039732456 0.05302400141954422 0  0.02239000052213669 0.05224400013685226 0  0.02391899935901165 0.05291000008583069 0  0.0296810008585453 0.05217299982905388 0  0.01879199966788292 0.0354980006814003 0  0.01791799999773502 0.0353740006685257 0  0.01833200082182884 0.03448100015521049 0  0.0133689995855093 0.04078900068998337 0  0.01244500000029802 0.04080599918961525 0  0.01290499977767467 0.03991400077939034 0  0.01197999995201826 0.0399320013821125 0  0.01152100041508675 0.04082199931144714 0  0.01151600014418364 0.03905599936842918 0  0.01243999972939491 0.03904100134968758 0  0.01291000004857779 0.04168099910020828 0  -0.02845799922943115 0.07095299661159515 0  -0.02734199911355972 0.07134799659252167 0  -0.02836599946022034 0.07175199687480927 0  -0.02662700042128563 0.07066000252962112 0  -0.02625500038266182 0.07150500267744064 0  -0.02520100027322769 0.07166200131177902 0  -0.025713000446558 0.07239799946546555 0  -0.02458800002932549 0.07094199955463409 0  -0.02416699938476086 0.07180400192737579 0  -0.0247189998626709 0.07253699749708176 0  -0.02860900014638901 0.06917600333690643 0  -0.01936599984765053 0.08391000330448151 0  -0.02037099935114384 0.08380399644374847 0  -0.01890699937939644 0.09240599721670151 0  -0.01982799917459488 0.09236700087785721 0  -0.01923600025475025 0.09164900332689285 0  -0.02015299908816814 0.0916140004992485 0  -0.01956900022923946 0.09088499844074249 0  -0.01811300031840801 0.09479899704456329 0  -0.01724600046873093 0.09485000371932983 0  -0.01705699972808361 0.09558200091123581 0  -0.01424899976700544 0.08673100173473358 0  -0.01176800020039082 0.08078300207853317 0  -0.0107599999755621 0.08089499920606613 0  -0.01128299999982119 0.08162800222635269 0  -0.01083699986338615 0.08245900273323059 0  -0.01029899995774031 0.08173199743032455 0  -0.01584899984300137 0.07866699993610382 0  -0.01636799983680248 0.07777699828147888 0  -0.01535400003194809 0.07790199667215347 0  -0.0143400002270937 0.07802700251340866 0  -0.01484700012952089 0.07713700085878372 0  -0.01883699931204319 0.08159200102090836 0  -0.01834199950098991 0.0808349996805191 0  -0.01936000026762486 0.08071299642324448 0  -0.02037999965250492 0.08059299737215042 0  -0.02529799938201904 0.07327699661254883 0  -0.02586000040173531 0.07568199932575226 0  -0.02542600035667419 0.076555997133255 0  -0.02297100052237511 0.02443999983370304 0  -0.0232900008559227 0.02507000043988228 0  -0.02350400015711784 0.02568800002336502 0  -0.02373499982059002 0.02635199949145317 0  -0.02281000092625618 0.02630499936640263 0  -0.01977300085127354 0.02391400001943111 0  -0.01881000027060509 0.02393399924039841 0  -0.02073900029063225 0.02386399917304516 0  -0.02232199907302856 0.02315600030124187 0  -0.01736900024116039 0.01823299936950207 0  -0.01699100062251091 0.01899800077080727 0  -0.01816000044345856 0.01860000006854534 0  -0.0165570005774498 0.01785599999129772 0  -0.01829499937593937 0.02306400053203106 0  -0.01640200056135654 
[...]
<PointData  Vectors="velocity"> 
<DataArray  type="Float64"  Name="velocity"  NumberOfComponents="3" format="ascii">1.5660000499337912e-03 1.8729999428614974e-03 0.0000000000000000e+00  2.3429999127984047e-03 2.5750000495463610e-03 0.0000000000000000e+00  -6.0439999215304852e-03 1.5109999803826213e-03 0.0000000000000000e+00  -8.1679997965693474e-03 3.1039998866617680e-03 0.0000000000000000e+00  -4.4829999096691608e-03 7.3099997825920582e-04 0.0000000000000000e+00  3.9510000497102737e-03 4.1000000201165676e-03 0.0000000000000000e+00  3.7100000772625208e-03 3.8489999715238810e-03 0.0000000000000000e+00  5.7950001209974289e-03 5.6019998155534267e-03 0.0000000000000000e+00  3.8809999823570251e-03 3.9499998092651367e-03 0.0000000000000000e+00  5.9870001859962940e-03 5.8360002003610134e-03 0.0000000000000000e+00  2.3719999007880688e-03 -1.6270000487565994e-03 0.0000000000000000e+00  1.8400000408291817e-03 -1.4880000380799174e-03 0.0000000000000000e+00  2.1500000730156898e-03 -1.2290000449866056e-03 0.0000000000000000e+00  1.5940000303089619e-03 -1.0499999625608325e-03 0.0000000000000000e+00  -2.9269999358803034e-03 -1.2955999933183193e-02 0.0000000000000000e+00  1.2799000367522240e-02 5.9463001787662506e-02 0.0000000000000000e+00  1.2094000354409218e-02 5.9932999312877655e-02 0.0000000000000000e+00  -8.0999998317565769e-05 -1.6543999314308167e-02 0.0000000000000000e+00  -1.8739999504759908e-03 -1.3214999809861183e-02 0.0000000000000000e+00  -1.7910000169649720e-03 -1.2884999625384808e-02 0.0000000000000000e+00  8.3109997212886810e-03 6.2706999480724335e-02 0.0000000000000000e+00  -5.3231999278068542e-02 -3.6851998418569565e-02 0.0000000000000000e+00  -4.8069998621940613e-02 -3.2292999327182770e-02 0.0000000000000000e+00  -5.3242001682519913e-02 -3.9792001247406006e-02 0.0000000000000000e+00  -1.9362999126315117e-02 -2.8440000489354134e-02 0.0000000000000000e+00  -2.3849999532103539e-02 -3.3424999564886093e-02 0.0000000000000000e+00  -2.2167000919580460e-02 -2.7261000126600266e-02 0.0000000000000000e+00  -2.1079000085592270e-02 -3.4648999571800232e-02 0.0000000000000000e+00  2.8349999338388443e-03 2.8969999402761459e-03 0.0000000000000000e+00  4.8779998905956745e-03 4.6890000812709332e-03 0.0000000000000000e+00  4.2229997925460339e-03 4.0830001235008240e-03 0.0000000000000000e+00  3.6619999445974827e-03 3.5929998848587275e-03 0.0000000000000000e+00  1.9570000004023314e-03 2.0989999175071716e-03 0.0000000000000000e+00  6.8899998441338539e-03 6.2310001812875271e-03 0.0000000000000000e+00  6.8270000629127026e-03 6.2680002301931381e-03 0.0000000000000000e+00  8.8809998705983162e-03 7.7800001017749310e-03 0.0000000000000000e+00  9.2120002955198288e-03 7.9129999503493309e-03 0.0000000000000000e+00  2.6249999646097422e-03 2.7399999089539051e-03 0.0000000000000000e+00  -1.4677999541163445e-02 9.3740001320838928e-03 0.0000000000000000e+00  -1.2087999843060970e-02 6.0439999215304852e-03 0.0000000000000000e+00  -1.0184000246226788e-02 4.6160002239048481e-03 0.0000000000000000e+00  2.0639998838305473e-03 2.2589999716728926e-03 0.0000000000000000e+00  1.7369999550282955e-03 1.9880000036209822e-03 0.0000000000000000e+00  7.5989998877048492e-03 6.7969998344779015e-03 0.0000000000000000e+00  5.1649999804794788e-03 5.1099997945129871e-03 0.0000000000000000e+00  5.9449998661875725e-03 5.5200001224875450e-03 0.0000000000000000e+00  6.8459999747574329e-03 6.4280000515282154e-03 0.0000000000000000e+00  6.1409999616444111e-03 5.9540001675486565e-03 0.0000000000000000e+00  9.4130001962184906e-03 8.3100004121661186e-03 0.0000000000000000e+00  4.3503001332283020e-02 1.1243599653244019e-01 0.0000000000000000e+00  4.0222998708486557e-02 1.1122299730777740e-01 0.0000000000000000e+00  2.5134999305009842e-02 3.7774998694658279e-02 0.0000000000000000e+00  8.0399997532367706e-03 8.4643997251987457e-02 0.0000000000000000e+00  6.0290000401437283e-03 7.7898003160953522e-02 0.0000000000000000e+00  -1.6210000030696392e-03 7.9028002917766571e-02 0.0000000000000000e+00  -1.0586900264024734e-01 2.6257000863552094e-02 0.0000000000000000e+00  -1.1227300018072128e-01 3.3342000097036362e-02 0.0000000000000000e+00  -1.0724399983882904e-01 2.9890000820159912e-02 0.0000000000000000e+00  -1.0395699739456177e-01 2.3227000609040260e-02 0.0000000000000000e+00  -1.1349000036716461e-01 3.1166000291705132e-02 0.0000000000000000e+00  -4.2823001742362976e-02 -2.2224999964237213e-02 0.0000000000000000e+00  -4.7711998224258423e-02 -2.6515999808907509e-02 0.0000000000000000e+00  -4.3519999831914902e-02 -1.9252000376582146e-02 0.0000000000000000e+00  -4.8319999128580093e-02 -2.3291999474167824e-02 0.0000000000000000e+00  8.0869998782873154e-03 1.9937999546527863e-02 0.0000000000000000e+00  5.6779999285936356e-03 1.8187999725341797e-02 0.0000000000000000e+00  2.6879999786615372e-03 1.7717000097036362e-02 0.0000000000000000e+00  3.9778001606464386e-02 4.5558001846075058e-02 0.0000000000000000e+00  1.1850999668240547e-02 2.7866000309586525e-02 0.0000000000000000e+00  3.8061000406742096e-02 3.8479998707771301e-02 0.0000000000000000e+00  3.7523001432418823e-02 3.9287999272346497e-02 0.0000000000000000e+00  -2.6949999853968620e-02 -7.8440001234412193e-03 0.0000000000000000e+00  -3.0820000916719437e-02 -1.1854000389575958e-02 0.0000000000000000e+00  -2.6357999071478844e-02 -5.3840000182390213e-03 0.0000000000000000e+00  -2.3063000291585922e-02 -3.7569999694824219e-03 0.0000000000000000e+00  -3.1509999185800552e-02 -1.0680000297725201e-02 0.0000000000000000e+00  -2.7310000732541084e-02 -6.3709998503327370e-03 0.0000000000000000e+00  -4.6399999409914017e-03 1.4492999762296677e-02 0.0000000000000000e+00  2.2200000239536166e-04 1.8324999138712883e-02 0.0000000000000000e+00  -7.9399999231100082e-04 1.6673000529408455e-02 0.0000000000000000e+00  -1.5537999570369720e-02 5.2280002273619175e-03 0.0000000000000000e+00  -1.2058000080287457e-02 8.1700002774596214e-03 0.0000000000000000e+00  -1.5517000108957291e-02 3.3350000157952309e-03 0.0000000000000000e+00  -1.0513900220394135e-01 1.1975999921560287e-02 0.0000000000000000e+00  -1.0352200269699097e-01 2.1477000787854195e-02 0.0000000000000000e+00  -1.1261499673128128e-01 1.3197000138461590e-02 0.0000000000000000e+00  -2.4196000769734383e-02 4.8581998795270920e-02 0.0000000000000000e+00  -9.9579999223351479e-03 5.6368999183177948e-02 0.0000000000000000e+00  -1.9494999200105667e-02 6.1113998293876648e-02 0.0000000000000000e+00  2.2670000325888395e-03 7.5599999399855733e-04 0.0000000000000000e+00  2.2670000325888395e-03 7.5599999399855733e-04 0.0000000000000000e+00  2.2670000325888395e-03 7.5599999399855733e-04 0.0000000000000000e+00  2.2670000325888395e-03 7.5599999399855733e-04 0.0000000000000000e+00  2.2670000325888395e-03 0.0000000000000000e+00 0.0000000000000000e+00  5.7700002798810601e-04 4.2999998549930751e-04 0.0000000000000000e+00  1.7719999887049198e-03 0.0000000000000000e+00 0.0000000000000000e+00  6.5100000938400626e-04 1.1200000153621659e-04 0.0000000000000000e+00  1.2829999905079603e-03 8.1200001295655966e-04 0.0000000000000000e+00  8.1800000043585896e-04 -1.4400000509340316e-04 0.0000000000000000e+00  8.5089998319745064e-03 4.6060001477599144e-03 0.0000000000000000e+00  5.5530001409351826e-03 3.5560000687837601e-03 0.0000000000000000e+00  5.5940002202987671e-03 2.6779999025166035e-03 0.0000000000000000e+00  3.0169999226927757e-03 8.8900001719594002e-04 0.0000000000000000e+00  5.2060000598430634e-03 1.5340000391006470e-03 0.0000000000000000e+00  2.9509998857975006e-03 1.6619999660179019e-03 0.0000000000000000e+00  8.5519999265670776e-03 5.6019998155534267e-03 0.0000000000000000e+00  5.9609999880194664e-03 5.1710000261664391e-03 0.0000000000000000e+00  8.3179995417594910e-03 6.8979999050498009e-03 0.0000000000000000e+00  8.6150001734495163e-03 6.4710001461207867e-03 0.0000000000000000e+00  2.5929999537765980e-03 -7.9299998469650745e-04 0.0000000000000000e+00  4.4156998395919800e-02 1.7079999670386314e-02 0.0000000000000000e+00  4.1019000113010406e-02 1.6533000394701958e-02 0.0000000000000000e+00  4.3846998363733292e-02 1.7377000302076340e-02 0.0000000000000000e+00  4.8190001398324966e-02 1.7247000709176064e-02 0.0000000000000000e+00  5.3020000457763672e-02 1.9396999850869179e-02 0.0000000000000000e+00  4.8466999083757401e-02 1.7652999609708786e-02 0.0000000000000000e+00  2.6440001092851162e-03 -1.1769999982789159e-03 0.0000000000000000e+00  1.7199999419972301e-03 -2.1250001154839993e-03 0.0000000000000000e+00  1.9020000472664833e-03 -1.9409999949857593e-03 0.0000000000000000e+00  1.2090000091120601e-03 -2.3419999051839113e-03 0.0000000000000000e+00  2.2670000325888395e-03 7.5599999399855733e-04 0.0000000000000000e+00  2.2670000325888395e-03 7.5599999399855733e-04 0.0000000000000000e+00  4.4050998985767365e-02 9.1623000800609589e-02 0.0000000000000000e+00  4.5678000897169113e-02 8.7201997637748718e-02 0.0000000000000000e+00  4.0770001709461212e-02 8.6214996874332428e-02 0.0000000000000000e+00  3.9818000048398972e-02 9.2110998928546906e-02 0.0000000000000000e+00  7.2164997458457947e-02 7.7678002417087555e-02 0.0000000000000000e+00  7.0932999253273010e-02 8.5474997758865356e-02 0.0000000000000000e+00  6.8175002932548523e-02 8.3627000451087952e-02 0.0000000000000000e+00  1.4495000243186951e-02 1.7206000164151192e-02 0.0000000000000000e+00  1.6420999541878700e-02 1.8687000498175621e-02 0.0000000000000000e+00  1.6912000253796577e-02 1.9177999347448349e-02 0.0000000000000000e+00  1.4632999897003174e-02 2.8742000460624695e-02 0.0000000000000000e+00  1.7867999151349068e-02 2.2438999265432358e-02 0.0000000000000000e+00  1.7630999907851219e-02 2.2911999374628067e-02 0.0000000000000000e+00  2.5111999362707138e-02 5.0639998167753220e-02 0.0000000000000000e+00  3.0834000557661057e-02 5.7875998318195343e-02 0.0000000000000000e+00  2.5453999638557434e-02 4.8110999166965485e-02 0.0000000000000000e+00  2.5856999680399895e-02 4.5915998518466949e-02 0.0000000000000000e+00  1.9672999158501625e-02 3.8545999675989151e-02 0.0000000000000000e+00  3.1592998653650284e-02 5.5592000484466553e-02 0.0000000000000000e+00  3.7007000297307968e-02 6.5425999462604523e-02 0.0000000000000000e+00  3.2485999166965485e-02 5.3697999566793442e-02 0.0000000000000000e+00  3.3647999167442322e-02 5.2333999425172806e-02 0.0000000000000000e+00  3.9379000663757324e-02 6.1562001705169678e-02 0.0000000000000000e+00  4.0686000138521194e-02 6.0143999755382538e-02 0.0000000000000000e+00  2.5452999398112297e-02 9.6707999706268311e-02 0.0000000000000000e+00  2.3377999663352966e-02 1.0152599960565567e-01 0.0000000000000000e+00  3.1959000974893570e-02 1.0316099971532822e-01 0.0000000000000000e+00  3.0399000272154808e-02 1.0811699926853180e-01 0.0000000000000000e+00  7.5030000880360603e-03 1.5109999803826213e-03 0.0000000000000000e+00  8.2599995657801628e-03 1.5109999803826213e-03 0.0000000000000000e+00  5.1540001295506954e-03 3.5290000960230827e-03 0.0000000000000000e+00  5.4290001280605793e-03 3.8809999823570251e-03 0.0000000000000000e+00  4.6224001795053482e-02 6.8954996764659882e-02 0.0000000000000000e+00  7.0231996476650238e-02 9.7823001444339752e-02 0.0000000000000000e+00  7.1607001125812531e-02 1.0106500238180161e-01 0.0000000000000000e+00  7.3550999164581299e-02 9.8780997097492218e-02 0.0000000000000000e+00  6.8104997277259827e-02 9.9863998591899872e-02 0.0000000000000000e+00  3.5743001848459244e-02 6.7596003413200378e-02 0.0000000000000000e+00  2.5162000209093094e-02 1.6411999240517616e-02 0.0000000000000000e+00  2.7974000200629234e-02 1.8208000808954239e-02 0.0000000000000000e+00  2.0057000219821930e-02 1.3501999899744987e-02 0.0000000000000000e+00  9.3667000532150269e-02 4.7598000615835190e-02 0.0000000000000000e+00  9.6698999404907227e-02 4.6301998198032379e-02 0.0000000000000000e+00  8.9175999164581299e-02 4.4151999056339264e-02 0.0000000000000000e+00  9.2358000576496124e-02 4.3228000402450562e-02 0.0000000000000000e+00  9.9206000566482544e-02 4.5085001736879349e-02 0.0000000000000000e+00  8.7641000747680664e-02 4.0176998823881149e-02 0.0000000000000000e+00  8.4472000598907471e-02 4.0704000741243362e-02 0.0000000000000000e+00  9.9863998591899872e-02 4.9626000225543976e-02 0.0000000000000000e+00  9.0779997408390045e-03 6.2451001256704330e-02 0.0000000000000000e+00  -1.0770000517368317e-03 -1.3623000122606754e-02 0.0000000000000000e+00  9.7789997234940529e-03 6.2217999249696732e-02 0.0000000000000000e+00  -6.5100000938400626e-04 -1.8061999231576920e-02 0.0000000000000000e+00  5.0999999075429514e-05 -1.9150000065565109e-02 0.0000000000000000e+00  8.3799997810274363e-04 -2.5195999071002007e-02 0.0000000000000000e+00  7.6399999670684338e-04 -2.1013999357819557e-02 0.0000000000000000e+00  1.5500000445172191e-03 -3.0027000233530998e-02 0.0000000000000000e+00  1.3050000416114926e-03 -3.1771000474691391e-02 0.0000000000000000e+00  1.1149999918416142e-03 -2.7002999559044838e-02 0.0000000000000000e+00  7.2550000622868538e-03 6.2971003353595734e-02 0.0000000000000000e+00  -2.4624999612569809e-02 -2.5704000145196915e-02 0.0000000000000000e+00  -2.0208999514579773e-02 -2.1533999592065811e-02 0.0000000000000000e+00  -3.6780000664293766e-03 9.7730001434683800e-03 0.0000000000000000e+00  -2.7600000612437725e-04 1.0897000320255756e-02 0.0000000000000000e+00  -4.1780001483857632e-03 8.0930003896355629e-03 0.0000000000000000e+00  -1.3709999620914459e-03 9.0020000934600830e-03 0.0000000000000000e+00  -4.6790000051259995e-03 6.0930000618100166e-03 0.0000000000000000e+00  6.3999998383224010e-04 1.5683000907301903e-02 0.0000000000000000e+00  -2.1500000730156898e-03 1.4647999778389931e-02 0.0000000000000000e+00  -1.2839999981224537e-03 1.6279999166727066e-02 0.0000000000000000e+00  -4.7825999557971954e-02 -3.5317998379468918e-02 0.0000000000000000e+00  -6.3913002610206604e-02 -8.6138002574443817e-02 0.0000000000000000e+00  -7.0010997354984283e-02 -8.9525997638702393e-02 0.0000000000000000e+00  -6.9274000823497772e-02 -8.3186000585556030e-02 0.0000000000000000e+00  -7.3325000703334808e-02 -7.9724997282028198e-02 0.0000000000000000e+00  -7.5016997754573822e-02 -8.6034998297691345e-02 0.0000000000000000e+00  -3.3509999513626099e-02 -7.4918001890182495e-02 0.0000000000000000e+00  -2.8820000588893890e-02 -7.5865000486373901e-02 0.0000000000000000e+00  -3.4106999635696411e-02 -8.2252003252506256e-02 0.0000000000000000e+00  -3.9556998759508133e-02 -8.8338002562522888e-02 0.0000000000000000e+00  -3.3828001469373703e-02 -8.9294001460075378e-02 0.0000000000000000e+00  -2.5578999891877174e-02 -4.0061000734567642e-02 0.0000000000000000e+00  -2.6819000020623207e-02 -4.6957001090049744e-02 0.0000000000000000e+00  -2.2001000121235847e-02 -4.1032001376152039e-02 0.0000000000000000e+00  -1.7656000331044197e-02 -3.5190999507904053e-02 0.0000000000000000e+00  4.6199999633245170e-04 -2.2482000291347504e-02 0.0000000000000000e+00  -2.5239998940378428e-03 -1.6723999753594398e-02 0.0000000000000000e+00  -2.8240000829100609e-03 -1.7363000661134720e-02 0.0000000000000000e+00  -1.6048999503254890e-02 1.1137000285089016e-02 0.0000000000000000e+00  -1.7377000302076340e-02 1.2844000011682510e-02 0.0000000000000000e+00  -1.8433000892400742e-02 1.4779999852180481e-02 0.0000000000000000e+00  -1.9570000469684601e-02 1.6866000369191170e-02 0.0000000000000000e+00  2.1299999207258224e-03 2.2619999945163727e-03 0.0000000000000000e+00  6.3249999657273293e-03 5.9529999271035194e-03 0.0000000000000000e+00  8.2059996202588081e-03 7.3810000903904438e-03 0.0000000000000000e+00  4.4069997966289520e-03 4.3480000458657742e-03 0.0000000000000000e+00  -1.3345000334084034e-02 7.6589998789131641e-03 0.0000000000000000e+00  -7.9399999231100082e-04 -5.1599997095763683e-04 0.0000000000000000e+00  1.2750000460073352e-03 1.5889999922364950e-03 0.0000000000000000e+00  -1.5109999803826213e-03 -7.5599999399855733e-04 0.0000000000000000e+00  -5.8000001445179805e-05 -2.7099999715574086e-04 0.0000000000000000e+00  8.1439996138215065e-03 7.4550001882016659e-03 0.0000000000000000e+00  9.7239995375275612e-03 8.2729998975992203e-03 0.0000000000000000e+00  1.3414000160992146e-02 1.0235999710857868e-02 0.0000000000000000e+00  1.2384999543428421e-02 1.0021000169217587e-02 0.0000000000000000e+00  4.0235999971628189e-02 1.5622000209987164e-02 0.0000000000000000e+00  4.1924998164176941e-02 1.5372999943792820e-02 0.0000000000000000e+00  3.7089999765157700e-02 1.3385999947786331e-02 0.0000000000000000e+00  8.4330001845955849e-03 3.5629998892545700e-03 0.0000000000000000e+00  1.5910999849438667e-02 6.1180000193417072e-03 0.0000000000000000e+00  2.0175000652670860e-02 7.5420001521706581e-03 0.0000000000000000e+00  2.0225999876856804e-02 8.4279999136924744e-03 0.0000000000000000e+00  1.5414999797940254e-02 5.1299999468028545e-03 0.0000000000000000e+00  1.1514999903738499e-02 3.7589999847114086e-03 0.0000000000000000e+00  2.4631999433040619e-02 9.0319998562335968e-03 0.0000000000000000e+00  2.9263999313116074e-02 1.0607000440359116e-02 0.0000000000000000e+00  2.9434999451041222e-02 1.1389999650418758e-02 0.0000000000000000e+00  2.7307000011205673e-02 7.9701997339725494e-02 0.0000000000000000e+00  2.3445000872015953e-02 7.1212999522686005e-02 0.0000000000000000e+00  1.8724000081419945e-02 7.3927998542785645e-02 0.0000000000000000e+00  4.8482999205589294e-02 1.1447300016880035e-01 0.0000000000000000e+00  4.3993998318910599e-02 1.0910700261592865e-01 0.0000000000000000e+00  4.3682001531124115e-02 1.1448899656534195e-01 0.0000000000000000e+00  5.6986998766660690e-02 1.4194299280643463e-01 0.0000000000000000e+00  5.6556999683380127e-02 1.4552800357341766e-01 0.0000000000000000e+00  5.6770000606775284e-02 1.4470599591732025e-01 0.0000000000000000e+00  2.4175999686121941e-02 3.7774998694658279e-02 0.0000000000000000e+00  -1.8008999526500702e-02 7.8953996300697327e-02 0.0000000000000000e+00  -2.6790000498294830e-02 7.7734999358654022e-02 0.0000000000000000e+00  -1.5469999983906746e-02 8.6612001061439514e-02 0.0000000000000000e+00  -6.2049999833106995e-03 8.7627001106739044e-02 0.0000000000000000e+00  -1.2488000094890594e-02 7.9149998724460602e-02 0.0000000000000000e+00  -7.1629998274147511e-03 7.9170003533363342e-02 0.0000000000000000e+00  2.8559999540448189e-02 1.1236000061035156e-01 0.0000000000000000e+00  3.7039998918771744e-02 1.1388199776411057e-01 0.0000000000000000e+00  3.5652998834848404e-02 1.1802899837493896e-01 0.0000000000000000e+00  4.2892001569271088e-02 1.1916399747133255e-01 0.0000000000000000e+00  1.6188999637961388e-02 9.0475998818874359e-02 0.0000000000000000e+00  3.5910001024603844e-03 8.7701000273227692e-02 0.0000000000000000e+00  4.7820000909268856e-03 9.3213997781276703e-02 0.0000000000000000e+00  -9.8999997135251760e-04 9.5151998102664948e-02 0.0000000000000000e+00  -1.2809999752789736e-03 9.9706999957561493e-02 0.0000000000000000e+00  1.0510999709367752e-02 1.0278899967670441e-01 0.0000000000000000e+00  1.4870000071823597e-02 9.5072001218795776e-02 0.0000000000000000e+00  -9.3391999602317810e-02 1.7870999872684479e-02 0.0000000000000000e+00  -8.8067002594470978e-02 1.6140000894665718e-02 0.0000000000000000e+00  -1.0425899922847748e-01 2.1426999941468239e-02 0.0000000000000000e+00  -1.1704900115728378e-01 3.2209999859333038e-02 0.0000000000000000e+00  -1.1029300093650818e-01 2.6605000719428062e-02 0.0000000000000000e+00  -1.1214800179004669e-01 2.6767000555992126e-02 0.0000000000000000e+00  -9.8980002105236053e-02 2.0341999828815460e-02 0.0000000000000000e+00  -3.4221999347209930e-02 -1.3753999955952168e-02 0.0000000000000000e+00  -3.0635999515652657e-02 -7.0369997993111610e-03 0.0000000000000000e+00  -3.0189000070095062e-02 -9.4079999253153801e-03 0.0000000000000000e+00  -3.4850001335144043e-02 -1.6426000744104385e-02 0.0000000000000000e+00  -4.7471001744270325e-02 -2.9614999890327454e-02 0.0000000000000000e+00  -7.0407003164291382e-02 -3.4177001565694809e-02 0.0000000000000000e+00  -7.2947002947330475e-02 -3.9069999009370804e-02 0.0000000000000000e+00  -8.0582998692989349e-02 -3.9498999714851379e-02 0.0000000000000000e+00  -3.9597999304533005e-02 -1.57900005578994