<?xml version="1.0"?>
<VTKFile type="UnstructuredGrid"  version="0.1"  >
<UnstructuredGrid>
<Piece  NumberOfPoints="6340" NumberOfCells="12376">
<Points>
<DataArray  type="Float64"  NumberOfComponents="3"  format="ascii">-0.01940199919044971 0.02071000076830387 0  -0.02006099931895733 0.02136100083589554 0  -0.02029000036418438 0.02037999965250492 0  -0.02082400023937225 0.02111399918794632 0  -0.0196359995752573 0.01979099959135056 0  -0.01923800073564053 0.02158400043845177 0  -0.01971700042486191 0.02231499925255775 0  -0.01925499923527241 0.0231309998780489 0  -0.02016800083220005 0.0230529997497797 0  -0.01878399960696697 0.02230899967253208 0  -0.008844999596476555 0.0175550002604723 0  -0.009463000111281872 0.01847700029611588 0  -0.009797000326216221 0.0175390001386404 0  -0.01042100042104721 0.01850100047886372 0  -0.025348000228405 0.07499899715185165 0  -0.02627599984407425 0.07541699707508087 0  -0.02643200010061264 0.0746299996972084 0  -0.02579299919307232 0.06842900067567825 0  -0.02641399949789047 0.06915000081062317 0  -0.02660300023853779 0.06824800372123718 0  -0.02732999995350838 0.06868000328540802 0  -0.01285700034350157 0.08681000024080276 0  -0.01376099977642298 0.08666700124740601 0  -0.01317500043660402 0.08597599714994431 0  -0.01966799981892109 0.08098699897527695 0  -0.01870599947869778 0.08114799857139587 0  -0.0192440003156662 0.08185700327157974 0  -0.01913600042462349 0.08027300238609314 0  -0.02181399986147881 0.02447099983692169 0  -0.02095800079405308 0.02459800057113171 0  -0.0213249996304512 0.02535399980843067 0  -0.02165200002491474 0.02611999958753586 0  -0.02219800092279911 0.02523799985647202 0  -0.02046100050210953 0.02548599988222122 0  -0.02008300088346004 0.02468599937856197 0  -0.01919599995017052 0.02476200088858604 0  -0.01958799920976162 0.02556299977004528 0  -0.021441999822855 0.02369399927556515 0  -0.02237799949944019 0.02361599914729595 0  -0.02181000076234341 0.02246999926865101 0  -0.02133099921047688 0.02181199938058853 0  -0.02105100080370903 0.02288700081408024 0  -0.02055400051176548 0.02213099971413612 0  -0.01622099988162518 0.02199600078165531 0  -0.01672299951314926 0.021119000390172 0  -0.01577699929475784 0.02109299972653389 0  -0.01709800027310848 0.02211599983274937 0  -0.01798499934375286 0.0221209991723299 0  -0.01750499941408634 0.02300100028514862 0  0.0426659993827343 0.08030000329017639 0  0.04228699952363968 0.07946400344371796 0  0.04360700026154518 0.07966399937868118 0  0.04584800079464912 0.09075800329446793 0  0.04665699973702431 0.09106600284576416 0  0.04555699974298477 0.09156499803066254 0  0.02785300090909004 0.09958799928426743 0  0.02800099924206734 0.09875000268220901 0  0.02893500030040741 0.09909699857234955 0  0.0268580000847578 0.1000379994511604 0  0.02699200063943863 0.09902500361204147 0  -0.006550999823957682 0.09562499821186066 0  -0.005566000007092953 0.09576799720525742 0  -0.006155999843031168 0.09646300226449966 0  -0.005164999980479479 0.0966079980134964 0  -0.01842599920928478 0.09521500021219254 0  -0.01879500038921833 0.09448499977588654 0  -0.01772399991750717 0.09473700076341629 0  -0.01938899978995323 0.09526699781417847 0  -0.01448999997228384 0.1014759987592697 0  -0.01471100002527237 0.102292001247406 0  -0.01533100008964539 0.1015150025486946 0  -0.01070700027048588 0.09423500299453735 0  -0.009767999872565269 0.09437800198793411 0  -0.0103540001437068 0.09507499635219574 0  -0.01164400018751621 0.09408900141716003 0  -0.01105799991637468 0.0933929979801178 0  -0.01199499983340502 0.09324699640274048 0  -0.01433899998664856 0.09598200023174286 0  -0.01488399971276522 0.09665100276470184 0  -0.01530900038778782 0.0958160012960434 0  -0.01317400019615889 0.09463000297546387 0  -0.01412499975413084 0.09448099881410599 0  -0.01352600008249283 0.09379500150680542 0  0.0126139996573329 0.09219300001859665 0  0.01367499958723783 0.09212499856948853 0  0.01308600045740604 0.09291200339794159 0  0.007907000370323658 0.07824800163507462 0  0.008372999727725983 0.07743000239133835 0  0.008968000300228596 0.0781790018081665 0  -0.008589999750256538 0.01662999950349331 0  -0.007803000044077635 0.01678300090134144 0  -0.00941499974578619 0.01657599955797195 0  -0.0102760000154376 0.01651900075376034 0  -0.01372000016272068 0.01669999957084656 0  -0.01392500009387732 0.01781699992716312 0  -0.01451900042593479 0.01693899929523468 0  -0.01316200010478497 0.01758299954235554 0  -0.01315900031477213 0.01863599941134453 0  -0.01238400023430586 0.01771000027656555 0  -0.01264000032097101 0.02159399911761284 0  -0.01311900001019239 0.0206460002809763 0  -0.01223799958825111 0.02063599973917007 0  -0.01182300038635731 0.01972799934446812 0  -0.01128100045025349 0.02055500075221062 0  -0.01271999999880791 0.0196480005979538 0  -0.01352600008249283 0.02165799960494041 0  -0.01488399971276522 0.02094300091266632 0  -0.01530400011688471 0.02192600071430206 0  -0.01441300008445978 0.02179200015962124 0  -0.00991200003772974 0.01943100057542324 0  -0.01134300045669079 0.03069699928164482 0  -0.0118410000577569 0.02983899973332882 0  -0.01091499999165535 0.02973400056362152 0  -0.006225999910384417 0.02907999977469444 0  -0.006668999791145325 0.03007500059902668 0  -0.007168999873101711 0.02922799997031689 0  -0.008995999582111835 0.01942300051450729 0  -0.006639000028371811 0.01864599995315075 0  -0.007579999975860119 0.01856699958443642 0  -0.00685400003567338 0.01779500022530556 0  -0.006951999850571156 0.01694699935615063 0  -0.006010000128298998 0.01713000051677227 0  0.04774900153279305 0.08708900213241577 0  0.04853999987244606 0.08660800009965897 0  0.04842700064182281 0.08767399936914444 0  0.04736600071191788 0.0878399983048439 0  0.01550900004804134 0.05817700177431107 0  0.01652999967336655 0.05801299959421158 0  0.01609599962830544 0.05893399938941002 0  0.02843400090932846 0.04234499856829643 0  0.02885700017213821 0.04126900061964989 0  0.02936699986457825 0.04195699840784073 0  0.0308069996535778 0.0463859997689724 0  0.03169399872422218 0.04565899819135666 0  0.03208300098776817 0.04639299958944321 0  0.03073699958622456 0.04989700019359589 0  0.02978700026869774 0.05001100152730942 0  0.0302750002592802 0.04904000088572502 0  0.0297860000282526 0.04823699966073036 0  0.03080499917268753 0.04806900024414062 0  0.02928199991583824 0.04919400066137314 0  0.02880300022661686 0.05015400052070618 0  0.0287490002810955 0.04841800034046173 0  0.02815799973905087 0.04768100008368492 0  0.02770799957215786 0.04859299957752228 0  0.02710399962961674 0.04785300046205521 0  0.04518000036478043 0.08934299647808075 0  0.0440789982676506 0.08941599726676941 0  0.04468199983239174 0.08864100277423859 0  0.04360400140285492 0.08868499845266342 0  0.006682000122964382 0.02287800051271915 0  0.007426000200212002 0.02333899959921837 0  0.006713999900966883 0.02397900074720383 0  0.007521999999880791 0.02432999946177006 0  0.02666299976408482 0.04876599833369255 0  0.02267399989068508 0.05108899995684624 0  0.0222379993647337 0.05200700089335442 0  0.02163499966263771 0.05125100165605545 0  0.02327200025320053 0.05184800177812576 0  0.0293320007622242 0.05097699910402298 0  0.01752699911594391 0.03422600030899048 0  0.01666600070893764 0.03408199921250343 0  0.0170499999076128 0.03316399827599525 0  0.01231999974697828 0.03961800038814545 0  0.01140400022268295 0.03961100056767464 0  0.01183599978685379 0.03869700059294701 0  0.01092000026255846 0.03869099915027618 0  0.01048799976706505 0.03960400074720383 0  0.01043500006198883 0.03777199983596802 0  0.0113519998267293 0.03777800127863884 0  0.01188900042325258 0.04053299874067307 0  -0.02722200006246567 0.06954599916934967 0  -0.02614500001072884 0.06998699903488159 0  -0.02712300047278404 0.07033900171518326 0  -0.02546700090169907 0.06933999806642532 0  -0.02509899996221066 0.07018999755382538 0  -0.0240860003978014 0.07039400190114975 0  -0.02456800080835819 0.0710970014333725 0  -0.02350700087845325 0.06971099972724915 0  -0.02309099957346916 0.07057999819517136 0  -0.02361200004816055 0.07127899676561356 0  -0.02740699984133244 0.06778299808502197 0  -0.01882500015199184 0.08271799981594086 0  -0.01977900043129921 0.08256299793720245 0  -0.01874100044369698 0.09136900305747986 0  -0.01965700089931488 0.09126400202512741 0  -0.01907099969685078 0.09056100249290466 0  -0.01998299919068813 0.09046000242233276 0  -0.0193949993699789 0.08974999934434891 0  -0.01786799915134907 0.0939520001411438 0  -0.01697699911892414 0.09408099949359894 0  -0.016720000654459 0.0948840007185936 0  -0.0140760000795126 0.08583000302314758 0  -0.01134500000625849 0.07997699826955795 0  -0.01038699969649315 0.08013799786567688 0  -0.01093500014394522 0.0808430016040802 0  -0.01056700013577938 0.08169600367546082 0  -0.01000200025737286 0.08099599927663803 0  -0.01516100019216537 0.07769499719142914 0  -0.01563099958002567 0.07679499685764313 0  -0.01465899962931871 0.07696600258350372 0  -0.01368600036948919 0.07713600248098373 0  -0.01414899993687868 0.07623899728059769 0  -0.01816999912261963 0.08043699711561203 0  -0.01765500009059906 0.07971300184726715 0  -0.01862799935042858 0.07954499870538712 0  -0.01960299909114838 0.07937899976968765 0  -0.02416400052607059 0.07198099792003632 0  -0.02473000064492226 0.07430300116539001 0  -0.02432899922132492 0.07517799735069275 0  -0.02267899923026562 0.02422299981117249 0  -0.02297000028192997 0.02480999939143658 0  -0.02317499928176403 0.02539299987256527 0  -0.02339600026607513 0.0260199997574091 0  -0.02249399945139885 0.0260390006005764 0  -0.01968099921941757 0.02390299923717976 0  -0.01878700032830238 0.02396799996495247 0  -0.02057999931275845 0.02380700036883354 0  -0.02208600006997585 0.0230260007083416 0  -0.01768399961292744 0.01827800087630749 0  -0.01730999909341335 0.01903999969363213 0  -0.0183899998664856 0.01867000013589859 0  -0.01696000061929226 0.01787500083446503 0  -0.01834799908101559 0.02311000041663647 0  -0.01662399992346764
[...]
<PointData  Vectors="velocity"> 
<DataArray  type="Float64"  Name="velocity"  NumberOfComponents="3" format="ascii">3.9429999887943268e-03 3.5929998848587275e-03 0.0000000000000000e+00  3.4590000286698341e-03 3.1610000878572464e-03 0.0000000000000000e+00  -7.5599999399855733e-04 7.5599999399855733e-04 0.0000000000000000e+00  -4.9000000581145287e-04 4.9000000581145287e-04 0.0000000000000000e+00  -7.5599999399855733e-04 7.5599999399855733e-04 0.0000000000000000e+00  7.7329999767243862e-03 6.7630000412464142e-03 0.0000000000000000e+00  7.6990001834928989e-03 6.6820001229643822e-03 0.0000000000000000e+00  1.1862999759614468e-02 9.7270002588629723e-03 0.0000000000000000e+00  7.4539999477565289e-03 6.4110001549124718e-03 0.0000000000000000e+00  1.2326000258326530e-02 1.0215999558568001e-02 0.0000000000000000e+00  6.6340002231299877e-03 3.3939999993890524e-03 0.0000000000000000e+00  1.2899000197649002e-02 7.1359998546540737e-03 0.0000000000000000e+00  6.9450000301003456e-03 3.6800000816583633e-03 0.0000000000000000e+00  1.2980000115931034e-02 7.4419998563826084e-03 0.0000000000000000e+00  -1.8260000273585320e-02 -5.1626000553369522e-02 0.0000000000000000e+00  1.0309999808669090e-02 -2.0888000726699829e-02 0.0000000000000000e+00  1.0076000355184078e-02 -2.0653000101447105e-02 0.0000000000000000e+00  -1.4623000286519527e-02 -7.6980002224445343e-02 0.0000000000000000e+00  -1.4000999741256237e-02 -6.7189000546932220e-02 0.0000000000000000e+00  -1.2172999791800976e-02 -6.7831002175807953e-02 0.0000000000000000e+00  8.3109997212886810e-03 -1.9642999395728111e-02 0.0000000000000000e+00  -7.2154998779296875e-02 -8.3341002464294434e-02 0.0000000000000000e+00  -6.4304001629352570e-02 -7.1470998227596283e-02 0.0000000000000000e+00  -7.8574001789093018e-02 -8.7752997875213623e-02 0.0000000000000000e+00  -5.0367999821901321e-02 -5.8634001761674881e-02 0.0000000000000000e+00  -5.9567000716924667e-02 -6.7599996924400330e-02 0.0000000000000000e+00  -4.8888999968767166e-02 -5.3399000316858292e-02 0.0000000000000000e+00  -5.8425001800060272e-02 -7.2053998708724976e-02 0.0000000000000000e+00  2.1959999576210976e-03 1.8919999711215496e-03 0.0000000000000000e+00  5.3489999845623970e-03 4.4680000282824039e-03 0.0000000000000000e+00  3.7859999574720860e-03 3.1049998942762613e-03 0.0000000000000000e+00  3.0559999868273735e-03 2.4659999180585146e-03 0.0000000000000000e+00  1.7989999614655972e-03 1.5249999705702066e-03 0.0000000000000000e+00  6.7440001294016838e-03 5.3139999508857727e-03 0.0000000000000000e+00  9.5610003918409348e-03 7.6620001345872879e-03 0.0000000000000000e+00  1.4000000432133675e-02 1.0711999610066414e-02 0.0000000000000000e+00  1.1150999926030636e-02 8.4210000932216644e-03 0.0000000000000000e+00  3.6079999990761280e-03 3.1930000986903906e-03 0.0000000000000000e+00  3.6999999429099262e-04 0.0000000000000000e+00 0.0000000000000000e+00  0.0000000000000000e+00 0.0000000000000000e+00 0.0000000000000000e+00  -2.3799999326001853e-04 2.3799999326001853e-04 0.0000000000000000e+00  3.7829999346286058e-03 3.4040000755339861e-03 0.0000000000000000e+00  3.7889999803155661e-03 3.4360000863671303e-03 0.0000000000000000e+00  2.7000999078154564e-02 1.9679000601172447e-02 0.0000000000000000e+00  1.9959999248385429e-02 1.5558999963104725e-02 0.0000000000000000e+00  2.5453999638557434e-02 1.8766000866889954e-02 0.0000000000000000e+00  2.1694000810384750e-02 1.6541000455617905e-02 0.0000000000000000e+00  1.6251999884843826e-02 1.3016999699175358e-02 0.0000000000000000e+00  2.1722000092267990e-02 1.6320999711751938e-02 0.0000000000000000e+00  6.6690996289253235e-02 1.1330799758434296e-01 0.0000000000000000e+00  6.5338000655174255e-02 1.1555899679660797e-01 0.0000000000000000e+00  -9.0300003066658974e-03 -3.7739001214504242e-02 0.0000000000000000e+00  7.5306996703147888e-02 1.0765700042247772e-01 0.0000000000000000e+00  7.0095002651214600e-02 9.8748996853828430e-02 0.0000000000000000e+00  7.4316002428531647e-02 1.1001600325107574e-01 0.0000000000000000e+00  -2.5132000446319580e-02 7.8694000840187073e-02 0.0000000000000000e+00  -1.9701000303030014e-02 9.4236001372337341e-02 0.0000000000000000e+00  -1.5526999719440937e-02 9.2145003378391266e-02 0.0000000000000000e+00  -3.3449001610279083e-02 6.5806999802589417e-02 0.0000000000000000e+00  -2.8266999870538712e-02 8.4624998271465302e-02 0.0000000000000000e+00  -8.6719997227191925e-02 -8.7388999760150909e-02 0.0000000000000000e+00  -9.5770001411437988e-02 -9.9737003445625305e-02 0.0000000000000000e+00  -8.2413002848625183e-02 -8.4003999829292297e-02 0.0000000000000000e+00  -9.1425999999046326e-02 -9.6479997038841248e-02 0.0000000000000000e+00  2.0039998926222324e-03 1.7370000481605530e-02 0.0000000000000000e+00  5.2200001664459705e-04 1.5490000136196613e-02 0.0000000000000000e+00  -2.0280000753700733e-03 1.7518000677227974e-02 0.0000000000000000e+00  1.1823999695479870e-02 -3.2014001160860062e-02 0.0000000000000000e+00  9.1300001367926598e-03 2.3804999887943268e-02 0.0000000000000000e+00  3.2059999648481607e-03 -4.1368998587131500e-02 0.0000000000000000e+00  4.2829997837543488e-03 -4.0291998535394669e-02 0.0000000000000000e+00  -5.0439000129699707e-02 -3.9250001311302185e-02 0.0000000000000000e+00  -5.9050001204013824e-02 -5.2003998309373856e-02 0.0000000000000000e+00  -5.1516998559236526e-02 -3.6541998386383057e-02 0.0000000000000000e+00  -4.2481999844312668e-02 -2.8656000271439552e-02 0.0000000000000000e+00  -4.9449998885393143e-02 -4.2899999767541885e-02 0.0000000000000000e+00  -4.1308000683784485e-02 -3.1555999070405960e-02 0.0000000000000000e+00  -1.4186999760568142e-02 1.1373000219464302e-02 0.0000000000000000e+00  -1.0842000134289265e-02 1.6908999532461166e-02 0.0000000000000000e+00  -9.0220002457499504e-03 1.6544999554753304e-02 0.0000000000000000e+00  -2.9227999970316887e-02 -6.0169999487698078e-03 0.0000000000000000e+00  -2.3135000839829445e-02 8.1100000534206629e-04 0.0000000000000000e+00  -2.7814999222755432e-02 -9.1249998658895493e-03 0.0000000000000000e+00  -1.1243599653244019e-01 2.1161999553442001e-02 0.0000000000000000e+00  -1.0552100092172623e-01 4.2259000241756439e-02 0.0000000000000000e+00  -1.1475200206041336e-01 2.5710999965667725e-02 0.0000000000000000e+00  -1.1520000174641609e-02 2.0275000482797623e-02 0.0000000000000000e+00  7.1100000059232116e-04 3.8070000708103180e-02 0.0000000000000000e+00  9.8200002685189247e-04 4.0369998663663864e-02 0.0000000000000000e+00  -1.5109999803826213e-03 1.5109999803826213e-03 0.0000000000000000e+00  -1.7419999931007624e-03 1.5109999803826213e-03 0.0000000000000000e+00  -1.5109999803826213e-03 1.2690000003203750e-03 0.0000000000000000e+00  -1.5109999803826213e-03 1.0169999441131949e-03 0.0000000000000000e+00  -1.5109999803826213e-03 7.5599999399855733e-04 0.0000000000000000e+00  6.1189997941255569e-03 4.4280001893639565e-03 0.0000000000000000e+00  -1.5109999803826213e-03 7.5599999399855733e-04 0.0000000000000000e+00  5.0840000621974468e-03 3.4129999112337828e-03 0.0000000000000000e+00  1.3057000003755093e-02 8.8590001687407494e-03 0.0000000000000000e+00  6.4599998295307159e-03 4.1109998710453510e-03 0.0000000000000000e+00  4.2856998741626740e-02 2.6647999882698059e-02 0.0000000000000000e+00  3.2605998218059540e-02 2.0973000675439835e-02 0.0000000000000000e+00  3.3718999475240707e-02 2.0834999158978462e-02 0.0000000000000000e+00  2.3786999285221100e-02 1.4595000073313713e-02 0.0000000000000000e+00  3.2310001552104950e-02 1.9378000870347023e-02 0.0000000000000000e+00  2.2273000329732895e-02 1.4332000166177750e-02 0.0000000000000000e+00  4.0858998894691467e-02 2.6233000680804253e-02 0.0000000000000000e+00  2.9304999858140945e-02 2.0595999434590340e-02 0.0000000000000000e+00  3.2602999359369278e-02 2.2647999227046967e-02 0.0000000000000000e+00  3.7420999258756638e-02 2.4948000907897949e-02 0.0000000000000000e+00  2.0113000646233559e-02 1.1556000448763371e-02 0.0000000000000000e+00  3.9629001170396805e-02 3.9544999599456787e-02 0.0000000000000000e+00  4.0658999234437943e-02 4.0463998913764954e-02 0.0000000000000000e+00  4.7883998602628708e-02 4.4541001319885254e-02 0.0000000000000000e+00  7.7777996659278870e-02 5.4460000246763229e-02 0.0000000000000000e+00  7.6122000813484192e-02 5.3899999707937241e-02 0.0000000000000000e+00  7.3039002716541290e-02 5.3511001169681549e-02 0.0000000000000000e+00  1.9406000152230263e-02 1.0924000293016434e-02 0.0000000000000000e+00  1.1966999620199203e-02 6.2370002269744873e-03 0.0000000000000000e+00  1.2516000308096409e-02 6.6320002079010010e-03 0.0000000000000000e+00  6.4380001276731491e-03 3.3599999733269215e-03 0.0000000000000000e+00  -1.9910000264644623e-03 1.5109999803826213e-03 0.0000000000000000e+00  -2.2670000325888395e-03 1.5109999803826213e-03 0.0000000000000000e+00  6.1965998262166977e-02 7.6296001672744751e-02 0.0000000000000000e+00  5.5801000446081161e-02 6.5200999379158020e-02 0.0000000000000000e+00  5.9147000312805176e-02 7.1759998798370361e-02 0.0000000000000000e+00  6.5924003720283508e-02 8.3982996642589569e-02 0.0000000000000000e+00  1.1613400280475616e-01 1.5916299819946289e-01 0.0000000000000000e+00  1.1666899919509888e-01 1.6604900360107422e-01 0.0000000000000000e+00  1.0819099843502045e-01 1.6491299867630005e-01 0.0000000000000000e+00  3.4589000046253204e-02 3.7595998495817184e-02 0.0000000000000000e+00  -1.5866000205278397e-02 -1.1888000182807446e-02 0.0000000000000000e+00  -1.5866000205278397e-02 -1.2378999963402748e-02 0.0000000000000000e+00  3.8191001862287521e-02 5.7169999927282333e-02 0.0000000000000000e+00  -1.5866000205278397e-02 -1.5638999640941620e-02 0.0000000000000000e+00  -1.5866000205278397e-02 -1.6112999990582466e-02 0.0000000000000000e+00  5.2646998316049576e-02 9.7640998661518097e-02 0.0000000000000000e+00  6.4273998141288757e-02 1.0904099792242050e-01 0.0000000000000000e+00  5.6430999189615250e-02 9.1981999576091766e-02 0.0000000000000000e+00  5.8864001184701920e-02 8.7811000645160675e-02 0.0000000000000000e+00  4.6881999820470810e-02 7.5228996574878693e-02 0.0000000000000000e+00  6.8098001182079315e-02 1.0440699756145477e-01 0.0000000000000000e+00  7.5930997729301453e-02 1.2000799924135208e-01 0.0000000000000000e+00  7.1437001228332520e-02 1.0043799877166748e-01 0.0000000000000000e+00  7.4794001877307892e-02 9.7315996885299683e-02 0.0000000000000000e+00  8.3966001868247986e-02 1.1178600043058395e-01 0.0000000000000000e+00  8.7651997804641724e-02 1.0850799828767776e-01 0.0000000000000000e+00  8.0737002193927765e-02 1.1397100239992142e-01 0.0000000000000000e+00  8.6055003106594086e-02 1.2674100697040558e-01 0.0000000000000000e+00  8.3524003624916077e-02 1.1846700310707092e-01 0.0000000000000000e+00  8.8490001857280731e-02 1.3185100257396698e-01 0.0000000000000000e+00  -8.7789995595812798e-03 7.5599999399855733e-04 0.0000000000000000e+00  -9.2839999124407768e-03 7.5599999399855733e-04 0.0000000000000000e+00  6.0089998878538609e-03 5.2930000238120556e-03 0.0000000000000000e+00  7.2119999676942825e-03 5.9239999391138554e-03 0.0000000000000000e+00  9.5908001065254211e-02 1.2140200287103653e-01 0.0000000000000000e+00  1.3282400369644165e-01 1.5521200001239777e-01 0.0000000000000000e+00  1.3387399911880493e-01 1.6100800037384033e-01 0.0000000000000000e+00  1.3931499421596527e-01 1.5600599348545074e-01 0.0000000000000000e+00  1.2747700512409210e-01 1.6067500412464142e-01 0.0000000000000000e+00  6.9283001124858856e-02 1.2563300132751465e-01 0.0000000000000000e+00  5.0978999584913254e-02 3.3606998622417450e-02 0.0000000000000000e+00  5.6793998926877975e-02 3.7248998880386353e-02 0.0000000000000000e+00  4.2722001671791077e-02 2.7786999940872192e-02 0.0000000000000000e+00  1.5540899336338043e-01 1.0074699670076370e-01 0.0000000000000000e+00  1.5978500247001648e-01 1.0184500366449356e-01 0.0000000000000000e+00  1.5170699357986450e-01 9.6519000828266144e-02 0.0000000000000000e+00  1.5730600059032440e-01 9.7501002252101898e-02 0.0000000000000000e+00  1.6424399614334106e-01 1.0225600004196167e-01 0.0000000000000000e+00  1.5441299974918365e-01 9.2621996998786926e-02 0.0000000000000000e+00  1.4853499829769135e-01 9.1471999883651733e-02 0.0000000000000000e+00  1.6311000287532806e-01 1.0520900040864944e-01 0.0000000000000000e+00  8.3109997212886810e-03 -1.9898999482393265e-02 0.0000000000000000e+00  -1.4930999837815762e-02 -6.6973999142646790e-02 0.0000000000000000e+00  8.3109997212886810e-03 -2.0132999867200851e-02 0.0000000000000000e+00  -1.7481999471783638e-02 -7.7747002243995667e-02 0.0000000000000000e+00  -1.8680000677704811e-02 -7.8057996928691864e-02 0.0000000000000000e+00  -2.3729000240564346e-02 -8.9677996933460236e-02 0.0000000000000000e+00  -2.2577000781893730e-02 -8.0462999641895294e-02 0.0000000000000000e+00  -2.6043999940156937e-02 -1.0048899799585342e-01 0.0000000000000000e+00  -2.9165999963879585e-02 -1.0124800354242325e-01 0.0000000000000000e+00  -2.7390999719500542e-02 -9.0986996889114380e-02 0.0000000000000000e+00  8.5739996284246445e-03 -1.9115999341011047e-02 0.0000000000000000e+00  -4.7770000994205475e-02 -4.9047999083995819e-02 0.0000000000000000e+00  -3.9368998259305954e-02 -4.0816001594066620e-02 0.0000000000000000e+00  -3.2750000245869160e-03 9.7420001402497292e-03 0.0000000000000000e+00  -1.0740000288933516e-03 9.7979996353387833e-03 0.0000000000000000e+00  -2.8570001013576984e-03 8.2620000466704369e-03 0.0000000000000000e+00  -1.1449999874457717e-03 7.9979998990893364e-03 0.0000000000000000e+00  -2.9279999434947968e-03 5.9630000032484531e-03 0.0000000000000000e+00  -5.0590001046657562e-03 1.5018999576568604e-02 0.0000000000000000e+00  -8.2250004634261131e-03 1.4271000400185585e-02 0.0000000000000000e+00  -6.0899998061358929e-03 1.6242999583482742e-02 0.0000000000000000e+00  -7.0685997605323792e-02 -7.6324000954627991e-02 0.0000000000000000e+00  -1.2991200387477875e-01 -1.6289800405502319e-01 0.0000000000000000e+00  -1.3506500422954559e-01 -1.6803200542926788e-01 0.0000000000000000e+00  -1.3224500417709351e-01 -1.6066800057888031e-01 0.0000000000000000e+00  -1.3367600739002228e-01 -1.5790100395679474e-01 0.0000000000000000e+00  -1.3688300549983978e-01 -1.6581599414348602e-01 0.0000000000000000e+00  -9.8860003054141998e-02 -1.4547200500965118e-01 0.0000000000000000e+00  -9.1759003698825836e-02 -1.4756999909877777e-01 0.0000000000000000e+00  -9.9512003362178802e-02 -1.5602900087833405e-01 0.0000000000000000e+00  -1.0678700357675552e-01 -1.6337600350379944e-01 0.0000000000000000e+00  -1.0031799972057343e-01 -1.6577500104904175e-01 0.0000000000000000e+00  -6.7876003682613373e-02 -8.2041002810001373e-02 0.0000000000000000e+00  -7.4487999081611633e-02 -9.6161000430583954e-02 0.0000000000000000e+00  -6.4937002956867218e-02 -8.5561998188495636e-02 0.0000000000000000e+00  -5.5555999279022217e-02 -7.5848996639251709e-02 0.0000000000000000e+00  -2.5457000359892845e-02 -8.0647997558116913e-02 0.0000000000000000e+00  -2.1116999909281731e-02 -6.0901001095771790e-02 0.0000000000000000e+00  -2.3841999471187592e-02 -6.0231998562812805e-02 0.0000000000000000e+00  5.6600000243633986e-04 0.0000000000000000e+00 0.0000000000000000e+00  7.5599999399855733e-04 0.0000000000000000e+00 0.0000000000000000e+00  9.3199999537318945e-04 -1.7600000137463212e-04 0.0000000000000000e+00  1.1210000375285745e-03 -3.6599999293684959e-04 0.0000000000000000e+00  1.4759999467059970e-03 1.2250000145286322e-03 0.0000000000000000e+00  1.1013000272214413e-02 8.9360000565648079e-03 0.0000000000000000e+00  1.5677999705076218e-02 1.2129000388085842e-02 0.0000000000000000e+00  7.0210001431405544e-03 5.9690000489354134e-03 0.0000000000000000e+00  1.7899999511428177e-04 0.0000000000000000e+00 0.0000000000000000e+00  -9.9500000942498446e-04 7.5599999399855733e-04 0.0000000000000000e+00  6.0729999095201492e-03 5.3619998507201672e-03 0.0000000000000000e+00  -7.5599999399855733e-04 7.5599999399855733e-04 0.0000000000000000e+00  -1.2400000123307109e-03 7.5599999399855733e-04 0.0000000000000000e+00  1.6772000119090080e-02 1.3133999891579151e-02 0.0000000000000000e+00  2.7481999248266220e-02 1.9703000783920288e-02 0.0000000000000000e+00  3.2637998461723328e-02 2.2360000759363174e-02 0.0000000000000000e+00  2.6519000530242920e-02 1.8819000571966171e-02 0.0000000000000000e+00  3.2671000808477402e-02 3.5068999975919724e-02 0.0000000000000000e+00  3.3241000026464462e-02 3.3730998635292053e-02 0.0000000000000000e+00  2.6473000645637512e-02 2.8945000842213631e-02 0.0000000000000000e+00  4.3859001249074936e-02 2.6610000059008598e-02 0.0000000000000000e+00  5.9645000845193863e-02 3.6919001489877701e-02 0.0000000000000000e+00  6.4056999981403351e-02 4.0759999305009842e-02 0.0000000000000000e+00  6.2031999230384827e-02 4.0479999035596848e-02 0.0000000000000000e+00  5.9291001409292221e-02 3.5859998315572739e-02 0.0000000000000000e+00  5.2021000534296036e-02 3.1081000342965126e-02 0.0000000000000000e+00  6.6806003451347351e-02 4.3878998607397079e-02 0.0000000000000000e+00  6.8526998162269592e-02 4.6509001404047012e-02 0.0000000000000000e+00  6.5352998673915863e-02 4.6332001686096191e-02 0.0000000000000000e+00  6.0001999139785767e-02 7.5589001178741455e-02 0.0000000000000000e+00  5.3773000836372375e-02 6.5665997564792633e-02 0.0000000000000000e+00  5.9340998530387878e-02 7.6334998011589050e-02 0.0000000000000000e+00  8.3025000989437103e-02 1.1955600231885910e-01 0.0000000000000000e+00  8.0847002565860748e-02 1.1324000358581543e-01 0.0000000000000000e+00  8.6997002363204956e-02 1.2785799801349640e-01 0.0000000000000000e+00  9.1063000261783600e-02 2.0073300600051880e-01 0.0000000000000000e+00  9.1724000871181488e-02 2.1640199422836304e-01 0.0000000000000000e+00  9.0121001005172729e-02 2.1028800308704376e-01 0.0000000000000000e+00  -8.3109997212886810e-03 -3.7020001560449600e-02 0.0000000000000000e+00  7.8665003180503845e-02 1.2912400066852570e-01 0.0000000000000000e+00  7.8579001128673553e-02 1.3680599629878998e-01 0.0000000000000000e+00  8.2833997905254364e-02 1.3762900233268738e-01 0.0000000000000000e+00  8.2699000835418701e-02 1.2980699539184570e-01 0.0000000000000000e+00  7.8197002410888672e-02 1.2353599816560745e-01 0.0000000000000000e+00  7.6353996992111206e-02 1.1691799759864807e-01 0.0000000000000000e+00  9.3479000031948090e-02 1.4618700742721558e-01 0.0000000000000000e+00  9.0467996895313263e-02 1.3721300661563873e-01 0.0000000000000000e+00  9.5445998013019562e-02 1.5224200487136841e-01 0.0000000000000000e+00  9.1954000294208527e-02 1.4275899529457092e-01 0.0000000000000000e+00  7.7849000692367554e-02 1.1054000258445740e-01 0.0000000000000000e+00  7.9543001949787140e-02 1.1872100085020065e-01 0.0000000000000000e+00  8.4333002567291260e-02 1.2957200407981873e-01 0.0000000000000000e+00  8.7016001343727112e-02 1.4009900391101837e-01 0.0000000000000000e+00  9.0407997369766235e-02 1.5143799781799316e-01 0.0000000000000000e+00  9.1390997171401978e-02 1.4612199366092682e-01 0.0000000000000000e+00  8.2543000578880310e-02 1.2164799869060516e-01 0.0000000000000000e+00  -4.8399001359939575e-02 3.6596000194549561e-02 0.0000000000000000e+00  -5.4614000022411346e-02 2.2199999541044235e-02 0.0000000000000000e+00  -5.6387998163700104e-02 3.8180001080036163e-02 0.0000000000000000e+00  -3.4731999039649963e-02 8.1403002142906189e-02 0.0000000000000000e+00  -3.7021998316049576e-02 6.9558002054691315e-02 0.0000000000000000e+00  -4.3319001793861389e-02 6.4154997467994690e-02 0.0000000000000000e+00  -4.1359998285770416e-02 5.1290001720190048e-02 0.0000000000000000e+00  -6.8570002913475037e-02 -6.1230998486280441e-02 0.0000000000000000e+00  -5.6272000074386597e-02 -4.5396998524665833e-02 0.0000000000000000e+00  -5.9932999312877655e-02 -4.8953998833894730e-02 0.0000000000000000e+00  -6.7922003567218781e-02 -6.4593002200126648e-02 0.0000000000000000e+00  -9.5412999391555786e-02 -1.0289400070905685e-01 0.0000000000000000e+00  -1.2865300476551056e-01 -1.3734999299049377e-01 0.0000000000000000e+00  -1.2976899743080139e-01 -1.4043200016021729e-01 0.0000000000000000e+00  -1.3764700293540955e-01 -1.4619599282741547e-01 0.0000000000000000e+00  -8.0909997224807739e-02 -8.