<?xml version="1.0"?>
<VTKFile type="UnstructuredGrid"  version="0.1"  >
<UnstructuredGrid>
<Piece  NumberOfPoints="6340" NumberOfCells="12376">
<Points>
<DataArray  type="Float64"  NumberOfComponents="3"  format="ascii">-0.0192670002579689 0.02063100039958954 0  -0.01996699906885624 0.02128300070762634 0  -0.02019000053405762 0.0203000009059906 0  -0.02074199914932251 0.0210379995405674 0  -0.01949100010097027 0.01971100084483624 0  -0.01911499910056591 0.02150600031018257 0  -0.01962500065565109 0.02223899960517883 0  -0.01916299946606159 0.02305600047111511 0  -0.02009299956262112 0.02298000082373619 0  -0.01865500025451183 0.02223199978470802 0  -0.007872999645769596 0.01806499995291233 0  -0.008565000258386135 0.01890400052070618 0  -0.008892999961972237 0.01796299964189529 0  -0.009592999704182148 0.0188400000333786 0  -0.0266759991645813 0.07445999979972839 0  -0.02765600010752678 0.07486899942159653 0  -0.02780199982225895 0.07406699657440186 0  -0.02687299996614456 0.06783299893140793 0  -0.02757200039923191 0.06853900104761124 0  -0.02771399915218353 0.06763599812984467 0  -0.02851000055670738 0.06804999709129333 0  -0.01368900015950203 0.08638899773359299 0  -0.0146040003746748 0.08625199645757675 0  -0.01398099958896637 0.08558599650859833 0  -0.02076300047338009 0.08059900254011154 0  -0.01975299976766109 0.08077400177717209 0  -0.02030899934470654 0.08147100359201431 0  -0.02021300047636032 0.07989499717950821 0  -0.02175300009548664 0.02439800091087818 0  -0.02090699970722198 0.02452900074422359 0  -0.02126500010490417 0.02528299950063229 0  -0.02158300019800663 0.02604600042104721 0  -0.02212700061500072 0.02516099996864796 0  -0.02041300013661385 0.02542000077664852 0  -0.02002199925482273 0.02461699955165386 0  -0.01911900006234646 0.02469100058078766 0  -0.01952599920332432 0.02549399994313717 0  -0.02139000035822392 0.0236239992082119 0  -0.02231300063431263 0.02354099974036217 0  -0.02175999991595745 0.02239999920129776 0  -0.02126500010490417 0.02173800021409988 0  -0.02098999917507172 0.02281600050628185 0  -0.02047700062394142 0.02205700054764748 0  -0.01594500057399273 0.02194399945437908 0  -0.01645400002598763 0.0210609994828701 0  -0.01544300001114607 0.02105999924242496 0  -0.01688399910926819 0.02204100042581558 0  -0.01781300082802773 0.02204499952495098 0  -0.01733000017702579 0.02292699925601482 0  0.03739500045776367 0.07883500307798386 0  0.03729699924588203 0.07791200280189514 0  0.03841299936175346 0.0780709981918335 0  0.03780899941921234 0.09015099704265594 0  0.0384569987654686 0.09044799953699112 0  0.03745099902153015 0.09095299988985062 0  0.02126399986445904 0.09908399730920792 0  0.02150600031018257 0.0982540026307106 0  0.02225399948656559 0.09858699887990952 0  0.02035499922931194 0.09954100102186203 0  0.02060800045728683 0.09853599965572357 0  -0.008797000162303448 0.09468600153923035 0  -0.007883000187575817 0.09490399807691574 0  -0.008546000346541405 0.09555000066757202 0  -0.00761700002476573 0.09577299654483795 0  -0.01992299966514111 0.09436199814081192 0  -0.02022399939596653 0.09368599951267242 0  -0.01918300054967403 0.09390600025653839 0  -0.02088500000536442 0.09442500025033951 0  -0.01707700081169605 0.1001119986176491 0  -0.01741600036621094 0.10088200122118 0  -0.01785700023174286 0.100152000784874 0  -0.01240099966526031 0.0932840034365654 0  -0.01155299972742796 0.09341000020503998 0  -0.0122079998254776 0.09406799823045731 0  -0.01326000038534403 0.09316699951887131 0  -0.01260500028729439 0.09250999987125397 0  -0.01346400007605553 0.09239400178194046 0  -0.01607500016689301 0.09497799724340439 0  -0.01668700017035007 0.09561000019311905 0  -0.01697600074112415 0.09484600275754929 0  -0.01477800030261278 0.09369999915361404 0  -0.01566700078547001 0.09358400106430054 0  -0.01500300038605928 0.09293600171804428 0  0.00928799994289875 0.09193699806928635 0  0.01020199991762638 0.09185700118541718 0  0.009592000395059586 0.09264300018548965 0  0.007184999994933605 0.07819300144910812 0  0.007757000159472227 0.07730600237846375 0  0.008097999729216099 0.07811299711465836 0  -0.007569999899715185 0.0171900000423193 0  -0.00674000009894371 0.0174189992249012 0  -0.008453000336885452 0.0170620009303093 0  -0.009372999891638756 0.01692900061607361 0  -0.0130799999460578 0.01682999916374683 0  -0.01334000006318092 0.01791599951684475 0  -0.01395099982619286 0.0170230008661747 0  -0.01250899955630302 0.01773300021886826 0  -0.01254099979996681 0.01876099966466427 0  -0.01167699974030256 0.01791599951684475 0  -0.01208299957215786 0.02169300056993961 0  -0.01256799977272749 0.02073699980974197 0  -0.01161800045520067 0.02078000083565712 0  -0.01114100031554699 0.01992700062692165 0  -0.01058600004762411 0.0207739993929863 0  -0.01210200041532516 0.01978000067174435 0  -0.0130409998819232 0.0217099990695715 0  -0.01448400039225817 0.0209369994699955 0  -0.01496300008147955 0.02189899981021881 0  -0.01400499977171421 0.02179599925875664 0  -0.009077000431716442 0.01978999935090542 0  -0.01099700015038252 0.03070200048387051 0  -0.01150500029325485 0.02983300015330315 0  -0.01050100009888411 0.02977799996733665 0  -0.005439000204205513 0.02949699945747852 0  -0.00594600010663271 0.03042300045490265 0  -0.006453999783843756 0.02955500036478043 0  -0.008094999939203262 0.01986500062048435 0  -0.005561999976634979 0.01934400014579296 0  -0.006556999869644642 0.0191699992865324 0  -0.005764999892562628 0.01849799975752831 0  -0.005843000020831823 0.01766600087285042 0  -0.004850000143051147 0.01793999969959259 0  0.04002799838781357 0.08641199767589569 0  0.04087100178003311 0.08583399653434753 0  0.04046399891376495 0.08704099804162979 0  0.03950199857354164 0.08724799752235413 0  0.01581200025975704 0.05860500037670135 0  0.01680199988186359 0.05845599994063377 0  0.01634800061583519 0.05935699865221977 0  0.02884400077164173 0.04317500069737434 0  0.029296999797225 0.0421219989657402 0  0.02974499948322773 0.04280399903655052 0  0.0308190006762743 0.04713400080800056 0  0.03168600052595139 0.04642000049352646 0  0.03199699893593788 0.04712000116705894 0  0.03052400052547455 0.05049100145697594 0  0.02963499911129475 0.05063600093126297 0  0.03015000000596046 0.0496940016746521 0  0.02975199930369854 0.04892899841070175 0  0.03070499934256077 0.04875199869275093 0  0.02922300063073635 0.04985899850726128 0  0.02871599979698658 0.0507889986038208 0  0.02878200076520443 0.04912099987268448 0  0.02828199975192547 0.04840600118041039 0  0.0278060007840395 0.04929700121283531 0  0.02729200012981892 0.04856999963521957 0  0.03743400052189827 0.08875899761915207 0  0.03648599982261658 0.08884400129318237 0  0.03710599988698959 0.08806999772787094 0  0.0361809991300106 0.08812499791383743 0  0.007919999770820141 0.02462499961256981 0  0.008640999905765057 0.02508199959993362 0  0.007926000282168388 0.02569199912250042 0  0.008712000213563442 0.0260429996997118 0  0.02682599984109402 0.04946200177073479 0  0.02295999974012375 0.0517130009829998 0  0.02250299975275993 0.05261100083589554 0  0.0219700001180172 0.0518609993159771 0  0.0234839990735054 0.05246200039982796 0  0.02915200032293797 0.05156100168824196 0  0.01838099956512451 0.0353580005466938 0  0.01752500049769878 0.03525299951434135 0  0.01792800053954124 0.03435499966144562 0  0.01308500021696091 0.04073499888181686 0  0.01218099985271692 0.04075599834322929 0  0.01262800022959709 0.03986300155520439 0  0.01172299962490797 0.03988499939441681 0  0.01127499993890524 0.04077700152993202 0  0.01126500032842159 0.03901100158691406 0  0.01217100024223328 0.03899199888110161 0  0.01263799984008074 0.04162900149822235 0  -0.02844199910759926 0.06892000138759613 0  -0.02733499929308891 0.06938199698925018 0  -0.02837999910116196 0.06971500068902969 0  -0.02658700011670589 0.06874799728393555 0  -0.02624600008130074 0.0696059986948967 0  -0.02519099973142147 0.06983000040054321 0  -0.0257360003888607 0.07052399963140488 0  -0.02454599924385548 0.06915699690580368 0  -0.02415600046515465 0.07003600150346756 0  -0.02473999932408333 0.07072500139474869 0  -0.02853100001811981 0.06715600192546844 0  -0.0198609996587038 0.08233299851417542 0  -0.02086200006306171 0.08216600120067596 0  -0.01992700062692165 0.09075000137090683 0  -0.02085000090301037 0.09065300226211548 0  -0.02021300047636032 0.08998099714517593 0  -0.02113199979066849 0.08988799899816513 0  -0.02050100080668926 0.08920499682426453 0  -0.01925499923527241 0.09317299723625183 0  -0.01838199980556965 0.09328100085258484 0  -0.01822200044989586 0.09402000159025192 0  -0.01490799989551306 0.08544000238180161 0  -0.01205500029027462 0.07972200214862823 0  -0.0110489996150136 0.07989700138568878 0  -0.01161700021475554 0.08058799803256989 0  -0.01122299954295158 0.08143500238656998 0  -0.01063800044357777 0.08075200021266937 0  -0.01605799980461597 0.07736600190401077 0  -0.0165449995547533 0.07644999772310257 0  -0.01552900020033121 0.07663899660110474 0  -0.01451299991458654 0.07682699710130692 0  -0.01498700026422739 0.0759119987487793 0  -0.01920000091195107 0.0800739973783493 0  -0.01866500079631805 0.07935599982738495 0  -0.01968399994075298 0.07917000353336334 0  -0.02070499956607819 0.07898599654436111 0  -0.02535299956798553 0.07141999900341034 0  -0.02601500041782856 0.07376399636268616 0  -0.02561300061643124 0.07466000318527222 0  -0.02260600030422211 0.02414499968290329 0  -0.0228899996727705 0.02473000064492226 0  -0.02307900041341782 0.02529899962246418 0  -0.02328200079500675 0.02591099962592125 0  -0.02240999974310398 0.02595599927008152 0  -0.01960499957203865 0.02383100055158138 0  -0.01869400031864643 0.02389300055801868 0  -0.02051999978721142 0.02373700030148029 0  -0.02202799916267395 0.02295400016009808 0  -0.01739400066435337 0.01821999996900558 0  -0.01701799966394901 0.01898499950766563 0  -0.01816000044345856 0.01858999952673912 0  -0.01660900004208088 0.01783999986946583 0  -0.01821600086987019 0.02303499914705753 0  -0.0164049994
[...]
<PointData  Scalars="pressure"> 
<DataArray  type="Float64"  Name="pressure"  format="ascii">2.7387959736537092e-02  2.7424372608009735e-02  2.7385774643511433e-02  2.7412112043012610e-02  2.7358187515497644e-02  2.7401376594049863e-02  2.7434891600528907e-02  2.7455756378013396e-02  2.7467801824180862e-02  2.7411862236521672e-02  2.7086190617985832e-02  2.7128536110586021e-02  2.7095673465352153e-02  2.7129248397999656e-02  2.1785726836160257e-02  2.1905192757184715e-02  2.2317642197739004e-02  2.1456298643957337e-02  2.1875253982861560e-02  2.1519148548989495e-02  2.1931553999425639e-02  1.9136819443946559e-02  1.9589327614978953e-02  1.9364959411768412e-02  2.1575108792226863e-02  2.1471673486261424e-02  2.1496235819124181e-02  2.1544124831364801e-02  2.7569939686571190e-02  2.7535974329304491e-02  2.7565994693747653e-02  2.7592990827680158e-02  2.7609310054680987e-02  2.7568829345480925e-02  2.7531513975173685e-02  2.7521050846335521e-02  2.7563871331141250e-02  2.7534357600379644e-02  2.7483551659023789e-02  2.7434962192360246e-02  2.7424026517967513e-02  2.7499319016654415e-02  2.7454920716320511e-02  2.7329352266129037e-02  2.7316957910132909e-02  2.7286077503372079e-02  2.7360731631499442e-02  2.7389113044206673e-02  2.7402692273856576e-02  3.3348672998523642e-02  3.1044509324664731e-02  3.2089387031632430e-02  6.3541019321724040e-02  6.5278995942597381e-02  6.5940050761978189e-02  3.7996471185274418e-02  3.8603475170851560e-02  4.0952444195365430e-02  3.5486762180437580e-02  3.6186950318978867e-02  1.7252713159488328e-02  1.7132309083850397e-02  1.7394423081861836e-02  1.7313264137164157e-02  1.9600017060924430e-02  1.9838880257164959e-02  1.9647142000779397e-02  2.0042503521686697e-02  1.8698838842458390e-02  1.8830212438772170e-02  1.8817233031225296e-02  1.8101372502682678e-02  1.7840423971361659e-02  1.8056877665401996e-02  1.8371020252270602e-02  1.8176404293969592e-02  1.8467650830339855e-02  1.8976392633195290e-02  1.9026630586849634e-02  1.9167599153828159e-02  1.8770035604932192e-02  1.9009828531168206e-02  1.8897707628217256e-02  1.2033241674354010e-02  1.2344433435581795e-02  1.3061929357908023e-02  2.1416124727857977e-03  2.8487539244966067e-03  3.1413951631779555e-03  2.7059520073216915e-02  2.7060471911759809e-02  2.7063948665150800e-02  2.7078851252763249e-02  2.7162989993776469e-02  2.7155104280899629e-02  2.7171176761446432e-02  2.7143614862995262e-02  2.7162430759830977e-02  2.7131019775376880e-02  2.7218310507362252e-02  2.7198647183003029e-02  2.7184772680340016e-02  2.7160040710407292e-02  2.7178872838935574e-02  2.7168482924028667e-02  2.7235945105910611e-02  2.7252990510185933e-02  2.7296675945281790e-02  2.7263355204590022e-02  2.7152602595749212e-02  2.8015842675857425e-02  2.7908134235579529e-02  2.7872464095629323e-02  2.7699934476317169e-02  2.7781400913702056e-02  2.7720455939674093e-02  2.7162283332904838e-02  2.7192123371688165e-02  2.7157732105689759e-02  2.7125329324242851e-02  2.7080947591170051e-02  2.7128665540177059e-02  5.3685708794222499e-02  5.2893618780482564e-02  5.5988599405561626e-02  5.5755439227230141e-02  2.2177223000213062e-02  2.3007321503104597e-02  2.2184760374108832e-02  3.3282771660863797e-02  3.3232892180983201e-02  3.3481609679614451e-02  3.4546891717248021e-02  3.4656005922604607e-02  3.4888862292927113e-02  3.4864143597453628e-02  3.4608368910802448e-02  3.4683923137779779e-02  3.4500828793439228e-02  3.4696715548306306e-02  3.4427095712120784e-02  3.4284109259279966e-02  3.4242041961433156e-02  3.4034097724921983e-02  3.3911158650013082e-02  3.3692303654198556e-02  5.8502474124468358e-02  5.7606666960521996e-02  5.5927720978416195e-02  5.4976370968446424e-02  2.7988138221215181e-02  2.8035431832705272e-02  2.8056689416829116e-02  2.8094115101711045e-02  3.3507894296277485e-02  3.0853543080936123e-02  3.0240906364420110e-02  3.0068162614368347e-02  3.1017981857490443e-02  3.4469883791855685e-02  2.9653275614733930e-02  2.9475048967537897e-02  2.9448010926154816e-02  2.8444630318711986e-02  2.8146761256651977e-02  2.8438435118511754e-02  2.8160615933446341e-02  2.7841849317243039e-02  2.8155726033088288e-02  2.8415969182885380e-02  2.8107469474675788e-02  2.2143147714603628e-02  2.1655541269864624e-02  2.1764021757665737e-02  2.1635030561914688e-02  2.1637308336918848e-02  2.1607900781496159e-02  2.1654881391199657e-02  2.1543406364244684e-02  2.1563390672386398e-02  2.1629195141639343e-02  2.1636053182220914e-02  2.1403459546401798e-02  2.1493502672846533e-02  2.0230773564828781e-02  2.0359908686058956e-02  2.0390423766415908e-02  2.0508217732148531e-02  2.0550716201276839e-02  1.9784179027384829e-02  1.9626477723424511e-02  1.9492485731318496e-02  1.9824056477517754e-02  1.7827813114780107e-02  1.6809277304002009e-02  1.7497033881286247e-02  1.7201148338430929e-02  1.6504482651124669e-02  2.0450500231906261e-02  2.0624618982184588e-02  2.0178452635678884e-02  1.9603312063530054e-02  1.9831971543485746e-02  2.1417986548424632e-02  2.1331415681228136e-02  2.1485243576814479e-02  2.1597395950841959e-02  2.1684644905159325e-02  2.1811876546604589e-02  2.1771969334983259e-02  2.7480075719699695e-02  2.7458078742550074e-02  2.7478528985284238e-02  2.7495536091801942e-02  2.7623968355131895e-02  2.7493531419166516e-02  2.7478245073796877e-02  2.7501373417784851e-02  2.7462238147218196e-02  2.7274953872310881e-02  2.7278427334393229e-02  2.7305256303758720e-02  2.7239122500917222e-02  2.7435402753183832e-02  2.7379725339833710e-02  2.7401285935242464e-02  2.7432098717353026e-02  2.8050353712141908e-02  2.8176745300490746e-02  2.8202204424191274e-02  2.7208647223615497e-02  2.7289980551633626e-02  2.7343316104036321e-02  2.7340332439021203e-02  2.7300960227875391e-02  2.7252074078249013e-02  2.7401121921948650e-02  2.7461876927059960e-02  2.7465540232934266e-02  6.0736889851398579e-02  6.2701181810991338e-02  6.3546048899450827e-02  4.8968042181142639e-02  5.1703605639711256e-02  5.0885508832173673e-02  3.8182852360421127e-02  3.7703212847564505e-02  3.6444244363829273e-02  3.0547615874837702e-02  6.6392727656090042e-02  6.6191873824428205e-02  6.3929204683392762e-02  6.3687741746810633e-02  6.6355286980279385e-02  6.6199894791808461e-02  5.3867558242455850e-02  5.2423958854692199e-02  5.1383884953983459e-02  4.9988850298733553e-02  6.1175900482989508e-02  6.3192649795165909e-02  6.1470194883066882e-02  6.1031722612355406e-02  5.9115680163957011e-02  5.8048672274640410e-02  6.0240929162950867e-02  3.0567624927977339e-02  2.8528048323510392e-02  2.9197741691315865e-02  3.3867056178045189e-02  3.4223649524659588e-02  3.2346299206709263e-02  3.2875990267934738e-02  1.7619773195874551e-02  1.7844466887979367e-02  1.7832897044075792e-02  1.7594132166127915e-02  1.6959331488173954e-02  1.7531113872196705e-02  1.7174878160747642e-02  1.7322439361979788e-02  1.7502202135663059e-02  1.9843302596914032e-02  1.9188527302263850e-02  1.9143936609943485e-02  1.9079012854157355e-02  1.8944438617971862e-02  1.8665833856369475e-02  1.8534031303918549e-02  1.8661666923662966e-02  1.8662120909763047e-02  1.8526865356867220e-02  1.6035205721390139e-02  1.6036523293511899e-02  1.5483806038861424e-02  1.7858578476175453e-02  1.8141063397368561e-02  1.8291338330626183e-02  1.9148533264307079e-02  1.7876272780685189e-02  1.8035139157006129e-02  1.8012686664015877e-02  1.8777447169468199e-02  1.8897094343508017e-02  1.8736026380572375e-02  1.8667601632216979e-02  1.8571600710885851e-02  1.8294860275452095e-02  1.8532654916656788e-02  1.8457141076750956e-02  1.8631955666777236e-02  1.8578826263062356e-02  1.8386033185476908e-02  1.8776261932794344e-02  1.8950386418160298e-02  1.9189408715278765e-02  1.9102228600425313e-02  1.8673771506737998e-02  1.8370297167410371e-02  1.8363053675097878e-02  1.8539578171416389e-02  1.8479779652388791e-02  1.7842159330434301e-02  1.7898837913537469e-02  1.7995080817254844e-02  1.7882511164915113e-02  1.6120720258686549e-02  1.6352835385918432e-02  1.6051754977448998e-02  1.6169184566318363e-02  1.6312403256898221e-02  1.6798969226908773e-02  1.6367204386941794e-02  1.6832311878496861e-02  1.6449643764370712e-02  1.6791101074621395e-02  2.2232230605448045e-02  2.3251654848856163e-02  2.3433385328709241e-02  2.2083659466170941e-02  2.1151377758811929e-02  1.6335127722638378e-02  1.6144690131852366e-02  1.6689076570646250e-02  1.8834527883164288e-02  1.8928408032803344e-02  1.9127878130382914e-02  1.8637234345810688e-02  1.8803517665896649e-02  1.8723076767218801e-02  1.4427455719150578e-02  1.5529625658494632e-02  1.4223928395887209e-02  1.3152211519131374e-02  1.3062577663878389e-02  1.4205738359198833e-02  3.7984387749826001e-03  3.6667675741989744e-03  4.8675603068950024e-03  2.6828470560886497e-03  5.0327619379760685e-03  1.2157174396342445e-02  1.2591569573767003e-02  1.1164472209989375e-02  2.3887207192893486e-02  2.3833179443215689e-02  2.4704604037349726e-02  3.0157213271648504e-02  2.9270891223866315e-02  2.9997967314251157e-02  2.9139172549995020e-02  2.8983493721483275e-02  2.8336335565262785e-02  2.8240630998508674e-02  2.8129316702505222e-02  2.8289567173465653e-02  2.8245263371284329e-02  1.5293459603806840e-02  1.5183691235232610e-02  1.5317372467532224e-02  1.5482354694564049e-02  1.5861048676920696e-02  1.5661300604647266e-02  1.5294383652488502e-02  1.5852644622782935e-02  1.5880028101534355e-02  1.6968279258046289e-02  1.6363614083357375e-02  1.5376738863129583e-02  2.9990796039407380e-02  2.9293249027410775e-02  3.0066448150870395e-02  3.0604617339658614e-02  2.9859489417832518e-02  3.0408435734686712e-02  3.1134550532921752e-02  3.1855711653687162e-02  3.1583591545694172e-02  3.1987048222753341e-02  3.1806878597155454e-02  3.2669852944022644e-02  3.1170139594719440e-02  1.4797859038247090e-02  1.3832321270088481e-02  1.4830241222323355e-02  1.7607657812457600e-02  1.6976899101297960e-02  1.6829024746031866e-02  1.1104931812139548e-02  1.0215617976356957e-02  1.0268227251599892e-02  9.3981940869930919e-03  1.2100380453176393e-02  1.2028587095187095e-02  9.5031181168030165e-03  1.0368761955999700e-02  1.1320780565270569e-02  1.3410573151132282e-02  1.5712993742185093e-02  1.6407019124479796e-02  1.5296028054390100e-02  1.4548023870388040e-02  1.3882487001547969e-02  3.4607290601817997e-03  4.2820564299038896e-03  2.4604270575883311e-03  2.8677880426484434e-03  2.0423672631522671e-03  3.9724881997955444e-03  7.6294570767666756e-03  6.2742518048025317e-03  7.2483203101241719e-03  2.7247260341983721e-02  2.7209372489138621e-02  2.7185787430076686e-02  2.7212685463172487e-02  2.7187268290244912e-02  2.7153104246804671e-02  2.7122599877656729e-02  2.7142095730645709e-02  2.7133141198743438e-02  2.7119086760547424e-02  2.7100596204768776e-02  2.7110506921005820e-02  2.7944557869374810e-02  2.7806592013158798e-02  2.7834616043936576e-02  2.7965736222252777e-02  2.7742164633398292e-02  2.7628579155366560e-02  2.7708216632912105e-02  2.7605051545697895e-02  2.7677295894441220e-02  2.7584139827503962e-02  2.7753012535422505e-02  2.7507971666936158e-02  2.7519043834466864e-02  2.7463093651928346e-02  2.7533299176339232e-02  2.7574887834502071e-02  2.7136330915092648e-02  2.7181548690927843e-02  2.1571143946062479e-02  2.2039233870054006e-02  2.1454171569050710e-02  2.1493780639566605e-02  2.1512402050714578e-02  2.6039657029692027e-02  2.6878801708967733e-02  2.6702892682884748e-02  2.6156687196596341e-02  2.5630517051185533e-02  2.6215763531847625e-02  3.5281651099033431e-02  3.5096075535214502e-02  3.4625021262103539e-02  2.9346118983940524e-02  3.5587097843331993e-02  3.5286608762342575e-02  3.6035422269423426e-02  5.1001164968263207e-02  4.4491476243949460e-02  4.4611382194478272e-02  4.7044494497416454e-02  4.7634337162453452e-02  3.5833296770235237e-02  3.6028551397990480e-02  3.6223193831824055e-02  3.5642026976576376e-02  3.5735962831980675e-02  3.5462193267638470e-02  3.5286953918486214e-02  3.4612369856917763e-02  3.4990271630175138e-02  3.5011168646077270e-02  3.5241250093392087e-02  3.4929989015744289e-02  3.5315604379321880e-02  3.4451876671099016e-02  3.4668691145131061e-02  3.4856816276682606e-02  3.5347069758486692e-02  3.5397594273527538e-02  3.5123313804629921e-02  3.5032659002194544e-02  3.3781138524119639e-02  3.4327704275292692e-02  3.3910521713343106e-02  3.3426280308851107e-02  3.4010988794162741e-02  3.3514767879697663e-02  3.5881518269862460e-02  3.6188591089999930e-02  3.6174184014092746e-02  3.6127525289505850e-02  3.6299778679160129e-02  1.9783052295947345e-02  1.8904275356954825e-02  1.8831173040522016e-02  2.5853308086861586e-02  2.5774260342301104e-02  2.6708803368671818e-02  2.4795502136574929e-02  1.2959560626225441e-02  1.1820318980278910e-02  1.2628032299348273e-02  1.2228104783298867e-02  1.3391578716755698e-02  1.4015633553298719e-02  1.8617987837203073e-02  1.9294247692246635e-02  1.9036656783187049e-02  1.8004288121999092e-02  1.8234482772489076e-02  1.7343111055402739e-02  1.7732008701147391e-02  1.7284312394367042e-02  1.8409868249858206e-02  1.7840091584210356e-02  1.7136796725926759e-02  1.6158096371018005e-02  1.6348464367748096e-02  1.7040388348558894e-02  1.7968862569698971e-02  1.8054603665273498e-02  1.3458593304377681e-02  1.4587015904298360e-02  1.4240995164464060e-02  2.3729721420863104e-02  2.4143832334539032e-02  2.3085478183922079e-02  1.7983169248577381e-02  1.9026999265218524e-02  3.3563313143893478e-02  3.5058330406870244e-02  3.5158703123538096e-02  3.5349302977304743e-02  3.5058417504460898e-02  3.5095024755474109e-02  3.5278681768803347e-02  3.4972937309979836e-02  3.4421623535407730e-02  3.4509846445684583e-02  3.4878565642369873e-02  3.3718823235362266e-02  3.4009961066789524e-02  3.3772455651957585e-02  3.4071480075733199e-02  3.3281348897179409e-02  3.3034742964508659e-02  3.0790887462626294e-02  3.0316599359738117e-02  3.0154230106045964e-02  3.3441759977319192e-02  3.3632983479672064e-02  3.4102434522674502e-02  3.4306984741184238e-02  5.3364105638622428e-02  2.8131903333639088e-02  2.8082529451723737e-02  2.8116702493498028e-02  2.8222676524476381e-02  2.8225589028588051e-02  2.8170145796671528e-02  2.8175917047592668e-02  2.7965548059423938e-02  2.7967079186389146e-02  2.7926580860212886e-02  2.7918475818687942e-02  2.7954474084147106e-02  2.7991492666374032e-02  2.7812216621791001e-02  2.7811152669128661e-02  2.7747773124034154e-02  2.7874699002062894e-02  2.7746029364006226e-02  2.7804441923682068e-02  2.7684849214510705e-02  2.7683450829030509e-02  3.0402768258546306e-02  3.0560836600261401e-02  2.9727270740223979e-02  3.2440172691240443e-02  3.1758355048564071e-02  3.2259401322972947e-02  3.2080349221523780e-02  3.2687817100278835e-02  3.1596002468158461e-02  3.4264583710292749e-02  3.3972990645309169e-02  3.3789444550175102e-02  2.8316414321928121e-02  2.7397527793162645e-02  2.8189401001048012e-02  3.2252617095432930e-02  3.2189492118363555e-02  3.2922256646560108e-02  2.9398214513119029e-02  2.9273464905510086e-02  2.9453964800769807e-02  2.9618400524865727e-02  2.9489164382180747e-02  2.9730138146634312e-02  2.9320485107462227e-02  2.9314825323274500e-02  2.9494924827841624e-02  3.1789700518393235e-02  3.2006338783109434e-02  3.1809483968862899e-02  3.1591241584689109e-02  3.1571159338577334e-02  3.1365153035178492e-02  3.1155453354058765e-02  3.1122728407052269e-02  3.0905225656837558e-02  3.0692612238036727e-02  3.0638953343406418e-02  3.0460912113052151e-02  3.0452156931266454e-02  3.0660355458655950e-02  3.0691990241492290e-02  3.0446517827333239e-02  2.7923378930007750e-02  2.7922377659602246e-02  2.7764212913015875e-02  2.7741912150526384e-02  2.8232783640485405e-02  2.8732968170699924e-02  2.8193349663295696e-02  2.7780109473290959e-02  2.8309075791376266e-02  2.9159119968192440e-02  2.8711504457018103e-02  2.8752931304410576e-02  2.8769603604160331e-02  2.8745100840548564e-02  2.7452144808851019e-02  2.7965929975907931e-02  2.7872608380603882e-02  2.8370213979383045e-02  2.8413719740683858e-02  2.8439325808248227e-02  2.8774272415136345e-02  2.8048441960493616e-02  2.7778312708719360e-02  2.1261939945586270e-02  2.1094314961441117e-02  2.1092471257291467e-02  1.0379751236319387e-02  1.1430210199197495e-02  1.0328084977131356e-02  2.1644673294138030e-02  2.1687655764516291e-02  2.1564800272622670e-02  2.1558342368781243e-02  2.0793350875699924e-02  2.0804758327860898e-02  2.0622402989032937e-02  2.0769707175919125e-02  2.0940654524950426e-02  2.0254620589394541e-02  2.0693724038780746e-02  2.1028240406683579e-02  2.1230472511584129e-02  2.1626996231864482e-02  2.1391545020560662e-02  2.1094601379363621e-02  2.0964892716523777e-02  2.1048588621917323e-02  2.1292406904339561e-02  2.1386305276430595e-02  2.0389446087337726e-02  2.0188911387346638e-02  2.0390657094226897e-02  2.0060093473938494e-02  2.0084001312483078e-02  2.0195483899563875e-02  2.0289526384806640e-02  2.0465379840372097e-02  2.0693969590373618e-02  2.0856845835986598e-02  2.0413832184269162e-02  2.0575559395762631e-02  1.9362424292991016e-02  1.9977059786928104e-02  1.5475524416019973e-02  1.6204554442401077e-02  1.5545154743016980e-02  1.4703254710636542e-02  1.7864580186750446e-02  1.6985458815956145e-02  1.7636248717950186e-02  1.2909363862734148e-02  1.4084372555717956e-02  1.3067778006355557e-02  1.5008036958962544e-02  1.3960061469751171e-02  1.6790510555394551e-02  1.6918034902674094e-02  1.6773492362172203e-02  1.7438697090711254e-02  1.8839936871345157e-02  1.5158532383606212e-02  1.5727318689914144e-02  2.1028429962758187e-02  2.0916542034381320e-02  2.0338568982066624e-02  2.0741208024595129e-02  2.0440431886502151e-02  1.1421950180242391e-02  1.2385824450273024e-02  2.0797373309833250e-02  2.1042136592813461e-02  2.0504549409407158e-02  2.1544731362711164e-02  2.1426996825559395e-02  2.1425657441469653e-02  2.1592177717093777e-02  2.1520792440047974e-02  2.1599555436301050e-02  2.1235443833868807e-02  2.1545513378183147e-02  2.1399035807878490e-02  2.1449005226014027e-02  2.2083377800767218e-02  2.2195186793841276e-02  2.1750437812014294e-02  2.1941469044716756e-02  2.1679963708688584e-02  2.7638497209182850e-02  2.7489360564830541e-02  2.7682619661282271e-02  2.7636921165434883e-02  2.7482717097629270e-02  2.7352783124455472e-02  2.7333342573109112e-02  2.7307218916226804e-02  2.7272229050615125e-02  2.7347738550094709e-02  2.7337994383719047e-02  2.7346293312588414e-02  2.7746601645009798e-02  2.7818897487320936e-02  2.7780195073339072e-02  2.7770564213101534e-02  2.7728168752290623e-02  2.7698542338241539e-02  2.7734345973105472e-02  2.7817590226643048e-02  2.7848304322785983e-02  2.7911568677818889e-02  2.7866650489770210e-02  2.7961796410354074e-02  2.7901892523173911e-02  2.7783944850742578e-02  2.8015322338967009e-02  2.7992886775041408e-02  2.8004214596455100e-02  2.7917512980139267e-02  2.7719570529980045e-02  2.7707136019355649e-02  2.7689185298756254e-02  2.7603699670186915e-02  2.7606992718147691e-02  2.7468948835722387e-02  2.6602640589893971e-02  2.6371424116110230e-02  2.6254315986747427e-02  2.6461416086278070e-02  2.8212989093352327e-02  2.8331381904699110e-02  2.8085710208993746e-02  2.8202494639914796e-02  2.8173311270807549e-02  2.7974963857641436e-02  2.7974122995066242e-02  2.8091087219112555e-02  2.8097364234407209e-02  2.8190060072461012e-02  2.8283111807827485e-02  2.8160312676907003e-02  2.8296363684959795e-02  2.8239917982477977e-02  2.8171512158939080e-02  2.8281277855682102e-02  2.7592770371223312e-02  2.7514634062299453e-02  2.7576131221790562e-02  2.7654904959543355e-02  2.7554839608646527e-02  2.7404738843304660e-02  2.7482268249843012e-02  2.7419216519257085e-02  2.7707068427445788e-02  2.7730482078638402e-02  2.7679460410214636e-02  2.7507740332933184e-02  2.7344994260721865e-02  2.7653559510176562e-02  2.7543675316807403e-02  2.7569252588087033e-02  2.7532133478446380e-02  2.7209985334060265e-02  2.7182936196430002e-02  2.7245257856421866e-02  2.7353204679738202e-02  2.7317569747688064e-02  2.7368621643633795e-02  6.0389546193817110e-02  6.222473283