<?xml version="1.0"?>
<VTKFile type="UnstructuredGrid"  version="0.1"  >
<UnstructuredGrid>
<Piece  NumberOfPoints="6340" NumberOfCells="12376">
<Points>
<DataArray  type="Float64"  NumberOfComponents="3"  format="ascii">-0.01957100071012974 0.0207930002361536 0  -0.02036800049245358 0.02151699922978878 0  -0.02057000063359737 0.0205099992454052 0  -0.02123799920082092 0.0213639996945858 0  -0.01978500001132488 0.01986600086092949 0  -0.01943499967455864 0.02167900092899799 0  -0.02003099955618382 0.02247899957001209 0  -0.01954800076782703 0.0232779998332262 0  -0.02060200087726116 0.02332399971783161 0  -0.01895599998533726 0.02239299938082695 0  -0.007654999848455191 0.01808900013566017 0  -0.00836700014770031 0.0189180001616478 0  -0.008693999610841274 0.01797600090503693 0  -0.00941499974578619 0.01884300075471401 0  -0.02556899935007095 0.08017800003290176 0  -0.02648800052702427 0.08078300207853317 0  -0.0266720000654459 0.07998400181531906 0  -0.02621700055897236 0.07339199632406235 0  -0.02682399936020374 0.07424800097942352 0  -0.0270370002835989 0.07334599643945694 0  -0.02776000089943409 0.07391999661922455 0  -0.01146699953824282 0.09043700248003006 0  -0.01237600017338991 0.09043899923563004 0  -0.01189500000327826 0.08960100263357162 0  -0.01941500045359135 0.08545400202274323 0  -0.01841400004923344 0.08545300364494324 0  -0.01885399967432022 0.08629599958658218 0  -0.01897500082850456 0.08460800349712372 0  -0.02258899994194508 0.02513900026679039 0  -0.02161600068211555 0.02508700080215931 0  -0.02208000048995018 0.02600100077688694 0  -0.02249700017273426 0.02691500075161457 0  -0.02307200059294701 0.02606699988245964 0  -0.02109899930655956 0.02595300041139126 0  -0.02060900069773197 0.02504299953579903 0  -0.01958500035107136 0.02499799989163876 0  -0.02009199932217598 0.02590099908411503 0  -0.02211800031363964 0.02420300059020519 0  -0.02318499982357025 0.02432600036263466 0  -0.02246999926865101 0.02294000051915646 0  -0.02187100052833557 0.02217400074005127 0  -0.02161600068211555 0.02327400073409081 0  -0.02098999917507172 0.02240299992263317 0  -0.01601199992001057 0.02197100035846233 0  -0.01653400063514709 0.02109299972653389 0  -0.01546099968254566 0.02106999978423119 0  -0.0170109998434782 0.02209099940955639 0  -0.01802900061011314 0.02215100079774857 0  -0.01752999983727932 0.02302400022745132 0  0.04078299924731255 0.08436600118875504 0  0.04063599929213524 0.08349599689245224 0  0.04187000170350075 0.08383399993181229 0  0.04171700030565262 0.09562700241804123 0  0.04244599863886833 0.09603600203990936 0  0.04145700111985207 0.09653200209140778 0  0.02554200030863285 0.1045190021395683 0  0.0256740003824234 0.1035690009593964 0  0.02651499956846237 0.1040299981832504 0  0.02464799955487251 0.1049679964780807 0  0.02476700022816658 0.103814996778965 0  -0.00533499987795949 0.09875799715518951 0  -0.004435000009834766 0.09880399703979492 0  -0.00496299983933568 0.09963600337505341 0  -0.004058999940752983 0.09968800097703934 0  -0.01621799916028976 0.1003580018877983 0  -0.0165999997407198 0.09964799880981445 0  -0.01558000035583973 0.09972699731588364 0  -0.01712200045585632 0.1005830019712448 0  -0.01249799970537424 0.1062790006399155 0  -0.01268700044602156 0.107184998691082 0  -0.01326800044625998 0.1064689978957176 0  -0.009153000079095364 0.09793400019407272 0  -0.008290999568998814 0.09791900217533112 0  -0.008817000314593315 0.09876099973917007 0  -0.01000900007784367 0.09794899821281433 0  -0.009483999572694302 0.09710899740457535 0  -0.0103399995714426 0.09712500125169754 0  -0.01244099996984005 0.1004379987716675 0  -0.01292899996042252 0.1012440025806427 0  -0.01333099976181984 0.1004379987716675 0  -0.01139600016176701 0.0987979993224144 0  -0.0122699998319149 0.09881299734115601 0  -0.01173400040715933 0.09797900170087814 0  0.01181400008499622 0.09500300139188766 0  0.01276899967342615 0.09499700367450714 0  0.01224000006914139 0.09585899859666824 0  0.007550000213086605 0.07869700342416763 0  0.00811500009149313 0.07786200195550919 0  0.008503999561071396 0.07868999987840652 0  -0.007340000011026859 0.01721999980509281 0  -0.006492000073194504 0.01746100001037121 0  -0.008239000104367733 0.01708300039172173 0  -0.009176000021398067 0.01693899929523468 0  -0.01295999996364117 0.01682000048458576 0  -0.01323799975216389 0.01790600083768368 0  -0.0138579998165369 0.01701300032436848 0  -0.01238400023430586 0.01772500015795231 0  -0.01242499984800816 0.01875099912285805 0  -0.0115360002964735 0.01791100017726421 0  -0.01198399998247623 0.02168400026857853 0  -0.01247300021350384 0.02072799950838089 0  -0.0114989997819066 0.02077200077474117 0  -0.01100500021129847 0.01992099918425083 0  -0.01044400036334991 0.0207700002938509 0  -0.01198500022292137 0.01977100037038326 0  -0.01296900026500225 0.02170100063085556 0  -0.01444400008767843 0.02092700079083443 0  -0.01496999990195036 0.02190499939024448 0  -0.01396000012755394 0.02178600057959557 0  -0.008895999751985073 0.01979600079357624 0  -0.01095900032669306 0.0306950006633997 0  -0.01147199980914593 0.0298250000923872 0  -0.01044000033289194 0.02976999990642071 0  -0.005262000020593405 0.02951700054109097 0  -0.005785999819636345 0.03043499961495399 0  -0.006297999992966652 0.02956300042569637 0  -0.0078959995880723 0.01988199912011623 0  -0.005301000084728003 0.01939800009131432 0  -0.006318999920040369 0.019208999350667 0  -0.005501999985426664 0.01855099946260452 0  -0.005574999842792749 0.0177219994366169 0  -0.004559999797493219 0.01800999976694584 0  0.04363999888300896 0.09166599810123444 0  0.0445839986205101 0.09129100292921066 0  0.04410900175571442 0.09230799973011017 0  0.04307699948549271 0.09238599985837936 0  0.01707999967038631 0.05988400056958199 0  0.01814999990165234 0.05987000092864037 0  0.01764300093054771 0.06072400137782097 0  0.03142900019884109 0.04600400105118752 0  0.03194199874997139 0.04499400034546852 0  0.03240299969911575 0.0457569994032383 0  0.03342600166797638 0.05035199970006943 0  0.03436899930238724 0.04975000023841858 0  0.03467399999499321 0.05051200091838837 0  0.03299500048160553 0.05374500155448914 0  0.03204900026321411 0.05376200005412102 0  0.03262799978256226 0.05287399888038635 0  0.03223299980163574 0.05203299969434738 0  0.03324799984693527 0.0519930012524128 0  0.03164000064134598 0.05290599912405014 0  0.03107099980115891 0.05378299951553345 0  0.03119900077581406 0.05208500102162361 0  0.03068800084292889 0.0512779988348484 0  0.03015599958598614 0.05212099850177765 0  0.02962600067257881 0.05129799991846085 0  0.0411130003631115 0.0939600020647049 0  0.04012300074100494 0.09396900236606598 0  0.04066399857401848 0.0931209996342659 0  0.03969400003552437 0.09309700131416321 0  0.009054999798536301 0.0253710001707077 0  0.009847000241279602 0.02588799968361855 0  0.009046000428497791 0.02642999961972237 0  0.009910999797284603 0.02684799954295158 0  0.02910399995744228 0.05214200168848038 0  0.02491400018334389 0.05387400090694427 0  0.02440099976956844 0.0547260008752346 0  0.02385099977254868 0.05388100072741508 0  0.0254529993981123 0.05471900105476379 0  0.03150499984622002 0.05463799834251404 0  0.02027199976146221 0.03691599890589714 0  0.01934799924492836 0.03673199936747551 0  0.01979999989271164 0.03587799891829491 0  0.01444999966770411 0.04177900031208992 0  0.0134699996560812 0.04172499850392342 0  0.01397099997848272 0.04087600111961365 0  0.01298900041729212 0.04082300141453743 0  0.01248900033533573 0.04167100042104721 0  0.01250700000673532 0.03991900011897087 0  0.01348999980837107 0.03997499868273735 0  0.01394999958574772 0.04262800142168999 0  -0.02762500010430813 0.07480300217866898 0  -0.02652899920940399 0.07507199794054031 0  -0.02750100009143353 0.07561100274324417 0  -0.02586599998176098 0.07427900284528732 0  -0.02546999976038933 0.07509999722242355 0  -0.02444499917328358 0.07513300329446793 0  -0.02490800060331821 0.07594999670982361 0  -0.02388300001621246 0.07431899756193161 0  -0.02343899942934513 0.0751509964466095 0  -0.02394100092351437 0.07597099989652634 0  -0.02785800024867058 0.07300499826669693 0  -0.01828699931502342 0.08713199943304062 0  -0.01929100044071674 0.08713500201702118 0  -0.01675999909639359 0.09632000327110291 0  -0.01766500063240528 0.09636399894952774 0  -0.01716299913823605 0.09551200270652771 0  -0.01806399971246719 0.09555900096893311 0  -0.01757499948143959 0.09470000118017197 0  -0.01575299911201 0.09891799837350845 0  -0.01490799989551306 0.09889800101518631 0  -0.01464600022882223 0.09970399737358093 0  -0.01283000037074089 0.0896029993891716 0  -0.01111599989235401 0.08291599899530411 0  -0.01011900044977665 0.08291599899530411 0  -0.01055699959397316 0.08375799655914307 0  -0.0100119998678565 0.08459900319576263 0  -0.009569000452756882 0.08375699818134308 0  -0.01521100010722876 0.08119700103998184 0  -0.01573299989104271 0.08033700287342072 0  -0.01474700029939413 0.08034300059080124 0  -0.01375999953597784 0.08034899830818176 0  -0.01426799967885017 0.07948999851942062 0  -0.01797699928283691 0.08460900187492371 0  -0.01754000037908554 0.08375699818134308 0  -0.01853800006210804 0.08375400304794312 0  -0.01953699998557568 0.08375299721956253 0  -0.02447500079870224 0.07680100202560425 0  -0.02497199922800064 0.07933799922466278 0  -0.02453799918293953 0.08018500357866287 0  -0.02356399968266487 0.02505999989807606 0  -0.02393000014126301 0.02576999925076962 0  -0.02418399974703789 0.02647400088608265 0  -0.02445800043642521 0.02723200060427189 0  -0.02345100045204163 0.02701899968087673 0  -0.02009199932217598 0.02415600046515465 0  -0.01905800029635429 0.02409799955785275 0  -0.02112999930977821 0.02418199926614761 0  -0.02281700074672699 0.02361200004816055 0  -0.01747100055217743 0.01825099997222424 0  -0.01708799973130226 0.01901400089263916 0  -0.01829000003635883 0.01864000037312508 0  -0.01662999950349331 0.01785100065171719 0  -0.01850299909710884 0.02318700030446053 0  -0.0165190007537
[...]
<PointData  Scalars="pressure"> 
<DataArray  type="Float64"  Name="pressure"  format="ascii">1.3975867368496330e-02  1.4001646534612147e-02  1.3972238595400322e-02  1.4004846449581741e-02  1.3946367264071625e-02  1.3999114236007316e-02  1.4022470526531149e-02  1.4040312805224399e-02  1.4039625701428117e-02  1.4015636648359007e-02  1.3989776390055220e-02  1.3999955077829819e-02  1.3959476830092566e-02  1.3970372393136189e-02  2.0864092899589036e-02  2.0899118735450493e-02  2.0795178506104680e-02  1.9157375809410290e-02  1.9376542754580235e-02  1.9078140113410750e-02  1.9201345845910194e-02  1.6388280391442803e-02  1.6766739477003544e-02  1.6782556798254921e-02  2.0584198564425157e-02  2.0450893491760491e-02  2.0287550451045053e-02  2.0746959091656574e-02  1.4054243969222509e-02  1.4064344858877014e-02  1.4072724039679102e-02  1.4078446046126396e-02  1.4059933826309056e-02  1.4082584572804552e-02  1.4071965621840515e-02  1.4080548197105483e-02  1.4093594584738408e-02  1.4044342965399444e-02  1.4057564795570809e-02  1.4054917828695109e-02  1.4032632073088649e-02  1.4031593155640567e-02  1.4020904880086633e-02  1.3988981960653478e-02  1.3950516790659310e-02  1.3947954798495109e-02  1.3995359614388716e-02  1.4002801783048356e-02  1.4033749757795751e-02  1.0912342387548507e-02  9.5117794097423786e-03  1.0509514552410051e-02  2.0508991935961517e-02  2.0863063802301171e-02  2.1010347669641952e-02  1.9506023463085578e-02  1.8488255914979455e-02  1.9093647826963361e-02  1.9955512891100417e-02  1.8620474874786686e-02  1.9305004221692072e-02  1.9524178612219986e-02  1.9983523390285547e-02  2.0224209811575772e-02  1.8605864988030765e-02  1.8434969417021479e-02  1.8523641274141411e-02  1.8558364816243494e-02  2.0978007686475796e-02  2.1125868974571159e-02  2.0710494920421461e-02  1.8174066028503612e-02  1.8247197409549869e-02  1.8681037910880383e-02  1.8121457898658780e-02  1.7705355773487041e-02  1.7703074807729442e-02  1.9015808356899110e-02  1.9239216907329951e-02  1.8914703518977411e-02  1.8451609465252438e-02  1.8414277012577140e-02  1.8090250628924786e-02  1.4303890748650922e-02  1.3804442168559703e-02  1.4182686428989167e-02  4.4925325139957718e-03  3.6828659112016250e-03  3.6151275963020382e-03  1.4013749236557061e-02  1.4015424853616537e-02  1.3984033814903348e-02  1.3950567098953790e-02  1.3875094455724707e-02  1.3847823307802976e-02  1.3871548536240902e-02  1.3854787875252643e-02  1.3884416768997787e-02  1.3870262223293153e-02  1.4048545531871365e-02  1.3975883729360119e-02  1.4008189245769955e-02  1.3975091241528848e-02  1.4044065355803043e-02  1.3937943652541335e-02  1.4018247217954321e-02  1.3948059916877089e-02  1.3991673817742977e-02  1.3999686372265847e-02  1.4029133612508817e-02  1.4770582952041863e-02  1.4645169600258783e-02  1.4743709602124278e-02  1.5302135596118120e-02  1.5336142432671162e-02  1.5155690093676479e-02  1.4051528349684515e-02  1.4011555147473664e-02  1.4029480138001441e-02  1.3969007553535171e-02  1.3987224076715847e-02  1.3967741414578832e-02  1.8469068642883738e-02  1.8531983919484272e-02  1.8984126774023377e-02  1.8784319956255104e-02  1.0600827759729235e-02  1.0824595347568227e-02  1.0029724444142076e-02  1.6925216163119802e-02  1.6930821214068796e-02  1.6907089429545913e-02  1.6434524007766054e-02  1.6713294233342647e-02  1.6735800096497694e-02  1.5510321007112813e-02  1.5520662210837699e-02  1.5713873225478129e-02  1.5910814029879077e-02  1.5858589382872601e-02  1.5729477336967265e-02  1.5529947534419598e-02  1.5927752585844206e-02  1.6102046545920679e-02  1.5940382236602341e-02  1.6110662717087415e-02  1.9316858387528273e-02  1.8998183002807322e-02  1.8594974426854944e-02  1.8210793806826147e-02  1.6563902703359827e-02  1.6638538685730238e-02  1.6665117240148998e-02  1.6753705371978213e-02  1.5932870052495288e-02  1.5212583179330335e-02  1.4854917178360388e-02  1.5109316796717905e-02  1.4974082296718681e-02  1.5314587571844847e-02  1.7278207300375676e-02  1.7285997529253288e-02  1.7260922513777893e-02  1.7262608026663753e-02  1.7236729091687920e-02  1.7275361858984609e-02  1.7238067824383797e-02  1.7202137539686743e-02  1.7221917320115222e-02  1.7269796303695645e-02  1.7208738564584335e-02  1.9495920488161126e-02  1.9651523069108029e-02  1.9737107761733541e-02  1.9452469692746957e-02  1.9726489447465783e-02  1.9798487885780265e-02  2.0011960718987497e-02  1.9589449691676555e-02  1.9876056264029437e-02  2.0084987638601264e-02  1.8924179611691905e-02  1.9941626197935457e-02  2.0116886789030182e-02  1.8027753148258770e-02  1.8122704478865076e-02  1.8046886846684214e-02  1.8170139358336730e-02  1.8123652198854111e-02  1.8340500774740774e-02  1.8363225677804428e-02  1.8584335881574838e-02  1.7169736916453272e-02  1.8737726487445729e-02  1.8282823840571224e-02  1.8376064970235834e-02  1.7930217798810343e-02  1.7896262555075447e-02  2.0557070194602338e-02  2.0694842617846758e-02  2.0386147652006401e-02  2.0010374085346432e-02  2.0120552415957116e-02  2.0627240037268409e-02  2.0766017077295553e-02  2.0888892116935648e-02  2.0979214465848897e-02  2.0278641942449525e-02  2.0777895693577002e-02  2.0919941385026435e-02  1.4060469251412360e-02  1.4066699729933733e-02  1.4069514744237611e-02  1.4071749370736625e-02  1.4065569076689936e-02  1.4058185482294084e-02  1.4062935212859586e-02  1.4052977589372937e-02  1.4054663913653804e-02  1.3872343094201219e-02  1.3876230984453878e-02  1.3891243874682345e-02  1.3857708210872986e-02  1.4039061259593130e-02  1.4032476611289348e-02  1.4072866435063270e-02  1.4067987340473842e-02  1.4670883278774447e-02  1.4795649279967260e-02  1.4693033863277635e-02  1.4085886028728537e-02  1.4273968760122734e-02  1.4380693820097167e-02  1.4319223285681035e-02  1.4325806092174834e-02  1.4220139440895209e-02  1.4492637520631575e-02  1.4605891601522683e-02  1.4533880794787304e-02  1.9906305234405623e-02  2.0154652107343157e-02  2.0399283528927597e-02  1.6386780337548267e-02  1.7301799701303182e-02  1.6877745154155448e-02  1.1192163984150856e-02  1.0795824486059438e-02  1.0335388127183109e-02  9.2960094339515111e-03  2.1062571084085900e-02  2.0952830241213891e-02  2.0454863163513540e-02  2.0475168809492968e-02  2.1093272883399648e-02  2.1067115349209822e-02  1.7757970612092683e-02  1.7353148762483145e-02  1.6880893579001625e-02  1.6422451915961710e-02  1.9983910095076080e-02  2.0412956275136444e-02  1.9946718513511472e-02  1.9756799369335873e-02  1.9160610625230130e-02  1.8943225256012622e-02  1.9707680377542076e-02  2.0909563457131027e-02  2.1437690579907971e-02  2.0336071619296462e-02  1.8262477775818641e-02  1.9342226962252594e-02  1.9235913592552476e-02  2.0473232159232642e-02  1.8942436628468128e-02  1.9353520412350670e-02  1.8794250084536269e-02  1.8346482116147166e-02  1.8817421880174143e-02  2.1130416874748488e-02  2.0428560809038872e-02  2.0543920107667899e-02  2.0627742051050450e-02  1.8755320535389988e-02  2.0097146616832828e-02  1.9772162926027466e-02  2.0010712042487645e-02  2.0406596978170658e-02  2.0311764688859219e-02  2.0715061122976042e-02  2.0492543587757029e-02  2.0339692076941265e-02  2.0544259771158497e-02  1.5330565503322678e-02  1.5159634285370854e-02  1.5213258850445865e-02  1.5884480822848379e-02  1.6347942372760469e-02  1.6058142832964049e-02  1.8100665240137075e-02  1.7735135730401030e-02  1.9193149101652089e-02  1.9711934858960441e-02  1.9975742245866148e-02  1.9595214726364066e-02  1.9769337944182272e-02  1.9529014217614212e-02  1.9936204677220647e-02  1.8580867905860662e-02  1.8503968023987225e-02  1.8939730878906262e-02  1.8095138973340495e-02  1.9252123871652229e-02  1.9391540294622929e-02  1.9130093320768468e-02  1.9907278438387001e-02  1.9115132002789637e-02  1.8685525493784674e-02  1.8841890103432572e-02  2.4198949372605583e-02  2.3779751631330885e-02  2.3769980730663644e-02  2.3334595914324338e-02  2.3277646720042441e-02  2.2998233406699872e-02  2.3517050262166168e-02  2.3791467512974722e-02  2.9685109875774971e-02  2.8959440617878938e-02  2.9468227345597110e-02  2.9830998843997633e-02  2.9262500121553209e-02  2.9270369246232733e-02  2.9884135705487303e-02  2.9806544936170347e-02  2.9367009075713990e-02  2.8811608492088761e-02  2.4150929713890931e-02  2.2979179703667273e-02  2.3516430203298185e-02  2.3704888923924625e-02  2.4758251522692669e-02  2.8161872959085236e-02  2.8500171165366923e-02  2.7810360627492411e-02  2.4832513387666171e-02  2.4429604169216954e-02  2.4291338791958536e-02  2.3258772734987707e-02  2.3162761746421210e-02  2.3707898422115264e-02  1.1582020481727988e-02  1.1620559113293820e-02  1.1935195937774899e-02  1.1906188500971224e-02  1.2279899478029379e-02  1.2194086817499027e-02  2.9575538015024772e-03  3.0928722635191336e-03  2.3781800423200196e-03  3.7380623834304995e-03  2.2225984663446774e-03  9.0281083417888611e-04  6.8683606067383718e-04  7.7963599538069528e-04  1.1070181330433797e-02  1.1562928692519930e-02  1.1799917806076685e-02  1.3184554835616631e-02  1.2966700604049992e-02  1.3517427989177188e-02  1.3323319573588325e-02  1.5490062996495210e-02  1.5152708969866428e-02  1.5408529794033104e-02  1.4898174443570748e-02  1.4919962318706126e-02  1.5026199128088389e-02  1.0390759080683421e-02  1.0524645150595226e-02  1.0723956009785006e-02  9.7721644660941336e-03  1.0107082913223384e-02  9.6547154276135257e-03  9.1634663743234146e-03  9.5316502254500328e-03  1.1310715585564367e-02  1.0312325084778659e-02  1.0889026922766344e-02  1.0466473145103593e-02  8.6712943450105960e-03  8.6221593982388732e-03  9.1717974310800594e-03  8.6803951162890136e-03  8.1261063659847609e-03  8.0727587684862219e-03  8.5590344935593931e-03  9.1242635840091436e-03  8.4378646184899084e-03  6.5724783805911190e-03  6.9935412681566989e-03  7.3790972361564445e-03  6.1919515920646900e-03  1.5960505205931914e-02  1.5250967841745382e-02  1.5403632160458793e-02  1.9716451591616946e-02  1.9248837695577059e-02  1.8746640920232420e-02  1.1988865823844657e-02  1.2362710454507032e-02  1.1517236986025409e-02  1.1894755392540229e-02  1.2687956473961655e-02  1.2250353689006597e-02  1.2761262532972724e-02  1.3031998468872576e-02  1.3924282479611309e-02  1.3668286901158285e-02  1.3795236191213769e-02  1.4632808317514328e-02  1.4337988859659864e-02  1.3651407503677252e-02  1.4677345255279186e-02  3.5725722718436860e-03  2.7354759425403039e-03  4.4926800163966780e-03  4.5473353670916847e-03  5.5457391564651178e-03  2.8470323639639035e-03  1.3465880865794963e-03  1.9693390316291755e-03  1.2401474187103204e-03  1.3906880228115537e-02  1.3862642465902960e-02  1.3869880975889428e-02  1.3849184076059180e-02  1.3916286844999539e-02  1.3880957884316241e-02  1.3887964088402019e-02  1.3960210021886348e-02  1.3922191862948952e-02  1.3891123148113037e-02  1.3914902580723768e-02  1.3928850134786053e-02  1.4552062064719458e-02  1.4528141810874733e-02  1.4443430802883930e-02  1.4466316925788873e-02  1.4713977513692097e-02  1.4681662357542532e-02  1.4803944652497580e-02  1.4765170867386473e-02  1.4893206182580419e-02  1.4847323355953681e-02  1.5504775895739059e-02  1.4840574999902965e-02  1.4897932097583996e-02  1.4706957477364481e-02  1.4952576709163057e-02  1.5107461839241249e-02  1.4023938645145468e-02  1.4065845665078725e-02  1.8850384117154999e-02  1.8679217846651660e-02  1.8127494788042080e-02  1.8390885726245303e-02  1.8238600536244952e-02  1.3989094721304999e-02  1.4132662743400567e-02  1.4233094941966850e-02  1.3337001303861382e-02  1.3187446460450378e-02  1.3296911772056819e-02  1.1703879419366578e-02  1.1047202297103570e-02  1.1089644908774074e-02  8.3446891886081783e-03  1.2567046870586011e-02  1.2710338867331882e-02  1.3170850221722524e-02  1.7914946722634571e-02  1.5843960731808417e-02  1.6327053427274585e-02  1.6694825209698026e-02  1.7273146001664044e-02  1.5210966645779464e-02  1.5818281101948019e-02  1.5568176669769387e-02  1.5383501150006629e-02  1.5831626191578105e-02  1.4898516607997101e-02  1.5091443837354850e-02  1.3092181148331591e-02  1.3435419170008589e-02  1.3084974444443207e-02  1.3739681781835569e-02  1.3758216216702136e-02  1.3401182256018378e-02  1.4857111268145758e-02  1.5097053527656185e-02  1.4877915703302198e-02  1.4662733383617635e-02  1.4374335350655569e-02  1.4378224914211684e-02  1.4654755772085755e-02  1.4257416299716674e-02  1.4329556494983032e-02  1.3979237975414954e-02  1.3574175738832680e-02  1.3681380115740018e-02  1.3274641990765265e-02  1.4323516943254566e-02  1.4547382596737428e-02  1.4231126155284232e-02  1.3494900814284134e-02  1.3959942655743747e-02  5.2965248826633751e-03  4.4950089833890299e-03  4.9361890128153396e-03  1.0690943615399611e-02  1.1139529332189976e-02  1.1425339095655476e-02  1.1327544902684806e-02  6.2187301394231436e-03  5.8748600501920510e-03  6.5325291025383012e-03  5.5600957858021917e-03  5.9740077682877979e-03  6.6925042283701268e-03  1.3287347127742740e-02  1.3796431976899493e-02  1.3439208633949085e-02  1.2777426514387395e-02  1.3132460558624484e-02  1.1880220833557118e-02  1.1968211489024060e-02  1.1426926661669891e-02  1.2922664382352766e-02  1.2387378536364730e-02  6.2950076861626337e-03  5.5406371231486885e-03  6.2265274706133321e-03  5.6123299970411919e-03  6.4128421038172068e-03  7.1005384988282114e-03  5.0691280331257391e-03  5.5887146275434441e-03  4.9177932562226283e-03  4.5612487598491163e-03  4.8979973845196100e-03  4.4541535588506348e-03  3.7429454923445897e-03  4.1317181895356575e-03  1.6870686033408425e-02  1.5472139460480722e-02  1.5984102947836715e-02  1.5802567454968268e-02  1.5301265833000798e-02  1.6611207676529263e-02  1.6479216829652466e-02  1.6159455902983715e-02  1.6632361471970482e-02  1.6047842263040967e-02  1.5667774289969696e-02  1.6489199815226563e-02  1.6354351713699204e-02  1.6382595599047239e-02  1.6236236615860652e-02  1.6104449676232698e-02  1.5902739798901423e-02  1.6094748295339776e-02  1.5846057732793642e-02  1.6031225582259622e-02  1.6608564630767052e-02  1.6550856453918544e-02  1.5742210371403928e-02  1.6085281205055410e-02  1.7778964270051437e-02  1.6804520973328300e-02  1.6721293433914531e-02  1.6765502907241846e-02  1.6876308949053502e-02  1.6910742007160404e-02  1.6843499485256992e-02  1.6874057960571308e-02  1.6388156150417596e-02  1.6435281318306159e-02  1.6294020923604973e-02  1.6240162064588476e-02  1.6338053107147262e-02  1.6459729712924167e-02  1.5951857421328517e-02  1.6000369930417386e-02  1.5757856302703432e-02  1.6167941970343918e-02  1.5801701856971367e-02  1.6042848082363479e-02  1.5546914473533981e-02  1.5505181981283950e-02  1.4578100505344409e-02  1.4298647840050926e-02  1.4146718434562468e-02  1.5166076591192006e-02  1.5075201113377755e-02  1.5396621921346682e-02  1.5607026309998686e-02  1.5671432433818147e-02  1.5311165897062759e-02  1.5083681657061558e-02  1.4816558565031248e-02  1.5049145442185864e-02  9.4731265012563525e-03  9.0830504202595863e-03  9.7467206980754364e-03  1.2340597971826385e-02  1.2662834782180716e-02  1.2846971452814224e-02  1.7249956967624158e-02  1.7036866816337426e-02  1.7025640031084702e-02  1.7270245829895260e-02  1.7227605176037022e-02  1.7221002491829378e-02  1.7313855095410599e-02  1.7290529793118480e-02  1.7311789709251162e-02  1.6931456851118670e-02  1.6922436234281427e-02  1.7194011257334361e-02  1.7210000071277098e-02  1.6923622251827836e-02  1.7130628008663159e-02  1.7164201356891284e-02  1.7160546492469109e-02  1.6968171944398841e-02  1.7269858979036292e-02  1.6975284545828490e-02  1.6969475297463187e-02  1.7284503339789571e-02  1.7176644311829074e-02  1.7225934611778258e-02  1.7238993716760003e-02  1.7023590442302752e-02  1.7058616517346907e-02  1.7001137239260115e-02  1.7040286072631562e-02  1.6836929710616309e-02  1.6833246162317687e-02  1.6682607080766163e-02  1.6841443403535591e-02  1.6973218538421334e-02  1.7290554201024412e-02  1.7300989312804875e-02  1.7278973138336668e-02  1.7079325860474222e-02  1.6965633414459742e-02  1.6973095727183553e-02  1.7083693999088281e-02  1.6975557312294779e-02  1.7086272770862450e-02  1.7168341078222613e-02  1.7227039801397524e-02  1.7236038900070642e-02  1.7159048046092779e-02  1.7182240012231616e-02  2.0039078337126794e-02  1.9744792584908605e-02  2.0033986115330509e-02  1.1774064997739279e-02  1.1865848186832961e-02  1.1204114789601028e-02  2.0359399298783821e-02  2.0520375301385188e-02  1.9937637577777553e-02  1.9237836223037433e-02  1.8238369941388482e-02  1.8270348476109914e-02  1.7913559507274732e-02  1.8225617293436591e-02  1.8541753526506614e-02  2.0341066039999616e-02  2.0638150630013025e-02  1.9096557579801377e-02  1.9093715412908802e-02  1.9323251168453709e-02  2.0128419604078490e-02  1.8879609875309792e-02  1.8599763982594504e-02  1.8803176292335258e-02  1.9538316355624776e-02  1.9764072725513067e-02  1.8375044070888302e-02  1.8268869993537273e-02  1.8261430013427463e-02  1.8175163455698459e-02  1.8189318104848879e-02  1.8115585040727401e-02  1.8170658921286727e-02  1.8203958543974458e-02  1.8226905496794388e-02  1.8269118171071023e-02  1.7951312486394120e-02  1.8072356696359877e-02  1.6446827073546610e-02  1.8287396812507812e-02  1.5425026513780330e-02  1.5487251401642976e-02  1.5729942590318353e-02  1.5666354143011138e-02  1.7888993415225179e-02  1.7504348408310728e-02  1.7364230757638616e-02  1.6692376970434995e-02  1.6940068633655291e-02  1.6836859261385752e-02  1.6899397301903162e-02  1.6735954022235863e-02  1.7081436270441803e-02  1.5597399737236114e-02  1.5305652469451515e-02  1.5478517223871157e-02  1.6406508962340735e-02  1.7225004954458899e-02  1.7796366075048566e-02  2.0877255247503876e-02  2.0631286306997364e-02  2.0466346033570379e-02  2.0738448691092894e-02  2.0465804668662164e-02  1.1340752438358142e-02  1.1972973343584258e-02  2.0699409331205360e-02  2.0926950643859681e-02  2.0378211372417326e-02  2.1096449103778635e-02  2.0965898110607489e-02  2.1093062626960986e-02  2.0432964503705204e-02  2.0504870856582109e-02  2.0685488940015272e-02  2.0445881487718164e-02  2.1080014841715268e-02  2.0995378931164935e-02  2.1126554620464352e-02  2.0720717380737580e-02  2.0622952219703210e-02  2.0943069715568609e-02  2.0996666857405557e-02  2.0980496780399201e-02  1.4065362774641488e-02  1.4069962390044691e-02  1.4056268619344392e-02  1.4077969996955958e-02  1.4066952535295822e-02  1.3945489205911734e-02  1.3917860758881767e-02  1.3917809514209479e-02  1.3886619705334492e-02  1.3964124257716839e-02  1.3941375928588396e-02  1.4033529647590748e-02  1.4079958323281717e-02  1.4112791449007962e-02  1.4077197571020177e-02  1.4106090884436040e-02  1.4097759100164437e-02  1.4086491170321553e-02  1.4111988980604520e-02  1.4204185575058204e-02  1.4234385685280803e-02  1.4243622670443504e-02  1.4208063648655785e-02  1.4246201284067436e-02  1.4206622633580924e-02  1.4176887131659528e-02  1.4292096487917579e-02  1.4241010584492314e-02  1.4226691561777135e-02  1.4197015619719889e-02  1.4031887768399580e-02  1.4043915793153231e-02  1.4052922227263970e-02  1.4103046046800731e-02  1.4116971041890823e-02  1.4104060537365383e-02  1.3379325756725586e-02  1.3298293418371479e-02  1.3295344743840226e-02  1.3371743295122682e-02  1.4592882090753708e-02  1.4706656690123074e-02  1.4410504608312186e-02  1.4501960915208591e-02  1.4420466645016866e-02  1.4333261714536152e-02  1.4393280738693146e-02  1.4281259906458054e-02  1.4260694135730567e-02  1.4295751353798833e-02  1.4331488142777416e-02  1.4246388841826909e-02  1.4506315814079549e-02  1.4421028414064844e-02  1.4345593684679154e-02  1.4406670223614790e-02  1.4163086902689463e-02  1.4142340348687769e-02  1.4184206686942332e-02  1.4233340606967152e-02  1.4213503815641557e-02  1.4354175585891513e-02  1.4379933913740334e-02  1.4288424684310397e-02  1.4421973625414468e-02  1.4351008398223408e-02  1.4506316693608240e-02  1.4311103390138281e-02  1.4258596758557673e-02  1.4595153837531565e-02  1.4566374831995301e-02  1.4483051605416873e-02  1.4646466018727974e-02  1.4126238346514101e-02  1.4078756525585316e-02  1.4175085343709202e-02  1.4437823039000829e-02  1.4372652471812160e-02  1.4489935399495038e-02  1.9795366727007706e-02  1.978640762