<?xml version="1.0"?>
<VTKFile type="UnstructuredGrid"  version="0.1"  >
<UnstructuredGrid>
<Piece  NumberOfPoints="6340" NumberOfCells="12376">
<Points>
<DataArray  type="Float64"  NumberOfComponents="3"  format="ascii">-0.01916299946606159 0.02065600082278252 0  -0.01974399946630001 0.02126600034534931 0  -0.01999000087380409 0.0203000009059906 0  -0.02043299935758114 0.02096400037407875 0  -0.01940499991178513 0.01974200084805489 0  -0.01898599974811077 0.02152400091290474 0  -0.01939699985086918 0.02221599966287613 0  -0.01895100064575672 0.02304100058972836 0  -0.01976599916815758 0.0228899996727705 0  -0.01854700036346912 0.02225499972701073 0  -0.00902399979531765 0.01758299954235554 0  -0.00962700042873621 0.01850100047886372 0  -0.009960999712347984 0.01756300032138824 0  -0.01056999992579222 0.01852099969983101 0  -0.02381899952888489 0.07044599950313568 0  -0.02470199950039387 0.07068599760532379 0  -0.02484500035643578 0.06993299722671509 0  -0.02400700002908707 0.06430400162935257 0  -0.02463800087571144 0.06486900150775909 0  -0.02477199956774712 0.06400799751281738 0  -0.02549000084400177 0.06429000198841095 0  -0.01175300031900406 0.08288999646902084 0  -0.0125749995931983 0.08265300095081329 0  -0.01202499959617853 0.08215200155973434 0  -0.01829900033771992 0.07683400064706802 0  -0.01737700030207634 0.07712800055742264 0  -0.01785499975085258 0.0776820033788681 0  -0.01782600022852421 0.07627300173044205 0  -0.02114599943161011 0.02406499907374382 0  -0.02039700001478195 0.02430500090122223 0  -0.02067499980330467 0.02496200054883957 0  -0.02091800048947334 0.02563400007784367 0  -0.0214380007237196 0.02473000064492226 0  -0.01991900056600571 0.0252080000936985 0  -0.01961999945342541 0.02447300031781197 0  -0.01882800087332726 0.02462000027298927 0  -0.01914200000464916 0.02535999938845634 0  -0.02086500078439713 0.02338900044560432 0  -0.02168099954724312 0.02318399958312511 0  -0.02125000022351742 0.02219000086188316 0  -0.02085299976170063 0.02159499935805798 0  -0.02055699937045574 0.02265599928796291 0  -0.02014899998903275 0.02196799963712692 0  -0.01617000065743923 0.02201200090348721 0  -0.0166619997471571 0.02113400027155876 0  -0.01576199941337109 0.02111399918794632 0  -0.01700000092387199 0.02212399989366531 0  -0.01781599968671799 0.02209700085222721 0  -0.01734899915754795 0.02298299968242645 0  0.04009399935603142 0.07577099651098251 0  0.03984899818897247 0.07489500194787979 0  0.04106999933719635 0.07494699954986572 0  0.04200199991464615 0.08595000207424164 0  0.04273299872875214 0.08615799993276596 0  0.04165299981832504 0.0866129994392395 0  0.02428000047802925 0.0939520001411438 0  0.02449800074100494 0.09327100217342377 0  0.02534300088882446 0.09350299835205078 0  0.02330400049686432 0.09436400234699249 0  0.02352499961853027 0.09354200214147568 0  -0.007584999781101942 0.09070099890232086 0  -0.006808000151067972 0.09098599851131439 0  -0.007400000002235174 0.0914670005440712 0  -0.006610000040382147 0.09175699949264526 0  -0.01731700077652931 0.08904500305652618 0  -0.0175819993019104 0.08842100203037262 0  -0.01665700040757656 0.08873999863862991 0  -0.0181719996035099 0.08897999674081802 0  -0.01492100022733212 0.09441299736499786 0  -0.0152369998395443 0.09504000097513199 0  -0.01560099981725216 0.09435199946165085 0  -0.01067099999636412 0.08906099945306778 0  -0.009934999980032444 0.08927500247955322 0  -0.01052199956029654 0.0897660031914711 0  -0.01142300013452768 0.08885200321674347 0  -0.01083500031381845 0.08836200088262558 0  -0.01158700045198202 0.08815400302410126 0  -0.01392900012433529 0.09007599949836731 0  -0.01447799988090992 0.09054899960756302 0  -0.01471900008618832 0.08984699845314026 0  -0.01276599988341331 0.08912599831819534 0  -0.01354699954390526 0.0889120027422905 0  -0.01295199990272522 0.0884300023317337 0  0.01066699996590614 0.08877100050449371 0  0.01166999991983175 0.08866199851036072 0  0.01104300003498793 0.08932500332593918 0  0.007557000033557415 0.07779499888420105 0  0.008073000237345695 0.07697299867868423 0  0.008558999747037888 0.07768599689006805 0  -0.008779999800026417 0.01665999926626682 0  -0.008019999600946903 0.01681900024414062 0  -0.009592000395059586 0.01660200022161007 0  -0.01044000033289194 0.01654200069606304 0  -0.01381999999284744 0.016720000654459 0  -0.01400899980217218 0.01783899962902069 0  -0.01459600031375885 0.01696199923753738 0  -0.0132659999653697 0.01760300062596798 0  -0.01325500011444092 0.01865500025451183 0  -0.01250199973583221 0.01772999949753284 0  -0.01272199954837561 0.02161299996078014 0  -0.01319800037890673 0.02066699974238873 0  -0.01233800034970045 0.02065400034189224 0  -0.01193699985742569 0.01974700018763542 0  -0.01139899995177984 0.02057299949228764 0  -0.01281700003892183 0.01966699957847595 0  -0.01358400005847216 0.02168099954724312 0  -0.01491400040686131 0.02097100019454956 0  -0.01529799960553646 0.02194900065660477 0  -0.01444800011813641 0.02181899920105934 0  -0.01006199978291988 0.01945200003683567 0  -0.0113730002194643 0.03071999922394753 0  -0.0118659995496273 0.02986199967563152 0  -0.01096499990671873 0.02975399978458881 0  -0.006372000090777874 0.02910199947655201 0  -0.006802000105381012 0.03009499981999397 0  -0.007298999931663275 0.02924700081348419 0  -0.009161000140011311 0.01944700069725513 0  -0.00687899999320507 0.01868800073862076 0  -0.007786000147461891 0.01860000006854534 0  -0.007096000015735626 0.01783699914813042 0  -0.007199000101536512 0.01699000038206577 0  -0.006289999932050705 0.01717999950051308 0  0.04412800073623657 0.08270499855279922 0  0.04491300135850906 0.08206699788570404 0  0.04471199959516525 0.08327099680900574 0  0.04370100051164627 0.08352799713611603 0  0.01425199955701828 0.05714000016450882 0  0.0152350002899766 0.05685099959373474 0  0.01486000046133995 0.05780800059437752 0  0.02600299939513206 0.03999299928545952 0  0.02636200003325939 0.03888700157403946 0  0.02688400074839592 0.03949400037527084 0  0.02846799977123737 0.04360799863934517 0  0.02928799949586391 0.04277800023555756 0  0.02968900091946125 0.04343000054359436 0  0.02854200080037117 0.04699699953198433 0  0.02763500064611435 0.04725600033998489 0  0.02806299924850464 0.04624700173735619 0  0.02756300009787083 0.04554200172424316 0  0.02853300049901009 0.04523399844765663 0  0.02711899951100349 0.04653999954462051 0  0.026698999106884 0.04753600060939789 0  0.02657799981534481 0.04586799815297127 0  0.02597800083458424 0.04523399844765663 0  0.02558599971234798 0.04618300125002861 0  0.02497000060975552 0.04554399847984314 0  0.04150800034403801 0.08484599739313126 0  0.0404679998755455 0.08495999872684479 0  0.04110600054264069 0.084307000041008 0  0.04008999839425087 0.08439599722623825 0  0.005291000008583069 0.0227039996534586 0  0.005948999896645546 0.02312799915671349 0  0.00534099992364645 0.02380499988794327 0  0.006051999982446432 0.02411499992012978 0  0.02458699978888035 0.04649300128221512 0  0.02084599994122982 0.04928800091147423 0  0.0204670000821352 0.05024199932813644 0  0.01985099911689758 0.04958000034093857 0  0.02145699970424175 0.0499499998986721 0  0.0272390004247427 0.04824800044298172 0  0.0152209997177124 0.03329600021243095 0  0.01442100014537573 0.03323600068688393 0  0.01474899984896183 0.03228799998760223 0  0.01060200016945601 0.03911099955439568 0  0.009785999543964863 0.0391709990799427 0  0.0101500004529953 0.03822699934244156 0  0.009332999587059021 0.03828800097107887 0  0.008968999609351158 0.03923099860548973 0  0.00888300035148859 0.03740200027823448 0  0.009696999564766884 0.03734499961137772 0  0.01023800019174814 0.04005499929189682 0  -0.02542899921536446 0.06510599702596664 0  -0.02442299947142601 0.06568200141191483 0  -0.02537300065159798 0.06585200130939484 0  -0.0237440001219511 0.0651950016617775 0  -0.02343500033020973 0.06603699922561646 0  -0.02247699908912182 0.06638500094413757 0  -0.02297200076282024 0.06695599853992462 0  -0.02189099974930286 0.06584800034761429 0  -0.02153700031340122 0.06671500205993652 0  -0.02206799946725368 0.0672760009765625 0  -0.02551399916410446 0.06345199793577194 0  -0.01741800084710121 0.07851599901914597 0  -0.01833200082182884 0.07823300361633301 0  -0.01731500029563904 0.08590500056743622 0  -0.01814099960029125 0.08570100367069244 0  -0.01757499948143959 0.08519600331783295 0  -0.01839799992740154 0.08499599993228912 0  -0.01783899962902069 0.08448100090026855 0  -0.01671800017356873 0.08809600025415421 0  -0.01594099961221218 0.08829700201749802 0  -0.01580700092017651 0.08896200358867645 0  -0.0128619996830821 0.0819069966673851 0  -0.01043200027197599 0.07722300291061401 0  -0.009513000026345253 0.07751700282096863 0  -0.01000399980694056 0.07805900275707245 0  -0.009619000367820263 0.0788630023598671 0  -0.009111000224947929 0.07833400368690491 0  -0.01413900032639503 0.07454700022935867 0  -0.01460300013422966 0.0736439973115921 0  -0.01367700006812811 0.0739549994468689 0  -0.01275200024247169 0.07426600158214569 0  -0.01320100016891956 0.07336500287055969 0  -0.01690099947154522 0.07657299935817719 0  -0.01644000038504601 0.07599599659442902 0  -0.01737000048160553 0.07569000124931335 0  -0.01830199919641018 0.0753839984536171 0  -0.0226259995251894 0.06783699989318848 0  -0.02322899922728539 0.06989999860525131 0  -0.02285300008952618 0.07077299803495407 0  -0.02190900035202503 0.02370999939739704 0  -0.02212999947369099 0.02421999908983707 0  -0.02226700074970722 0.02470899932086468 0  -0.02241599932312965 0.02523599937558174 0  -0.02164800092577934 0.02542999945580959 0  -0.01929700002074242 0.02375099994242191 0  -0.01849899999797344 0.023887999355793 0  -0.02009999938309193 0.02358300052583218 0  -0.02145900018513203 0.02267199940979481 0  -0.01762600056827068 0.01829399913549423 0  -0.01725699938833714 0.01905700005590916 0  -0.01829000003635883 0.01868000067770481 0  -0.01694400049746037 0.01789800077676773 0  -0.0181220006197691 0.02306099981069565 0  -0.016
[...]
<PointData  Scalars="pressure"> 
<DataArray  type="Float64"  Name="pressure"  format="ascii">4.9936309164286048e-02  5.0006239409193139e-02  4.9987361729199285e-02  5.0037754413787904e-02  4.9902855755954122e-02  4.9936689618456570e-02  4.9963214438431637e-02  4.9864648009549255e-02  4.9941544368039867e-02  4.9870182010904623e-02  4.8150563159406183e-02  4.8177713504425998e-02  4.8318583828405128e-02  4.8360041216418466e-02  3.5962951864060490e-02  3.5780190173948914e-02  3.6025733573290634e-02  3.7757295785092279e-02  3.7626415026824123e-02  3.7890463021509169e-02  3.7680628178203689e-02  3.2034304228526385e-02  3.2206154975672092e-02  3.2199840715823290e-02  3.3863905721438527e-02  3.3648845132482806e-02  3.3673360873126119e-02  3.3832990008232443e-02  4.9790081391812818e-02  4.9758486379709872e-02  4.9624651584361378e-02  4.9465934086452702e-02  4.9653074037352814e-02  4.9571855735903871e-02  4.9715556860388449e-02  4.9647481310824290e-02  4.9510560973603138e-02  4.9897943793618615e-02  4.9864000810104440e-02  4.9983574268000472e-02  5.0039897510494820e-02  4.9986770070867124e-02  5.0023035381220445e-02  4.9438308018394897e-02  4.9553363692926275e-02  4.9357728261149612e-02  4.9613883834943869e-02  4.9767092097438112e-02  4.9643127258079608e-02  4.8716818658740089e-03  3.9609680006910839e-03  4.7759564358556272e-03  5.7126585760112593e-03  4.9915933847901467e-03  6.3909795480000210e-03  1.7455675506161176e-02  1.6408843176034821e-02  1.7508028787203152e-02  1.7385370505750442e-02  1.6130511385070181e-02  2.9033564469528397e-02  2.8608466965791085e-02  2.8870321422709865e-02  2.8443007890143115e-02  3.1608257639129486e-02  3.1760582779889114e-02  3.1548180048538592e-02  3.1496986569024048e-02  3.0431803964421928e-02  3.0233015651723354e-02  3.0360311452347129e-02  3.0379784957516177e-02  3.0127614551791027e-02  3.0256015607770879e-02  3.0616530912168045e-02  3.0535204251607027e-02  3.0765444501128829e-02  3.0969149551650112e-02  3.0984013107283961e-02  3.1125135514931561e-02  3.0884400457906479e-02  3.1060432380119365e-02  3.1011508439462602e-02  1.0532799441244361e-02  9.6968206321508040e-03  1.0403844275225537e-02  2.2095059547857454e-02  2.2483106132090664e-02  2.1351337922095776e-02  4.8180650713843892e-02  4.8038583223358439e-02  4.8320733346612250e-02  4.8459592072018887e-02  4.8955916836750296e-02  4.8994881066555120e-02  4.9072655382050079e-02  4.8871391746919235e-02  4.8860365613930527e-02  4.8743370377645527e-02  4.8579288316064284e-02  4.8764824238426568e-02  4.8557033739119723e-02  4.8536842165370971e-02  4.8342020777994113e-02  4.8733979983295539e-02  4.8794289369176291e-02  4.9159951124890952e-02  4.9229519816631075e-02  4.9014257470653438e-02  4.8160180485468301e-02  4.6478470634446656e-02  4.6751221462868739e-02  4.6527992579370903e-02  4.5358776154836036e-02  4.5359242898992791e-02  4.5630643962930081e-02  4.7963174379217009e-02  4.7549055320249084e-02  4.7779071080542003e-02  4.7747975625758214e-02  4.7862945750778180e-02  4.7635749222432251e-02  3.5748550186749978e-03  3.2497677597410199e-03  3.0999306823248488e-03  3.7849089820106482e-03  2.1615731716148633e-02  2.2210662635246181e-02  2.1364658390620607e-02  4.1832044053258154e-02  4.1850948221856303e-02  4.1969708902901852e-02  4.2008000258822224e-02  4.2111110208948602e-02  4.2171248132247777e-02  4.1002822347743953e-02  4.0704813355143560e-02  4.1231806175293720e-02  4.1383252313426308e-02  4.1601141414002535e-02  4.0909601841752616e-02  4.0255754622359204e-02  4.1035507042336924e-02  4.1089934409279202e-02  4.0567641262383818e-02  4.0622736248554593e-02  5.7350862812659128e-03  6.5494898124972408e-03  5.8269140514660986e-03  6.5272114835661001e-03  4.3723080242047158e-02  4.3517098685943167e-02  4.3528563566842711e-02  4.3333285136253931e-02  3.9967476624871268e-02  3.5269481028379672e-02  3.3937312488616665e-02  3.4294167802722646e-02  3.4974157186486894e-02  3.9991434337016241e-02  4.0681757230850948e-02  4.0694082406681202e-02  4.0802961053774775e-02  3.9226906665329991e-02  3.9153335166147142e-02  3.9552510367015382e-02  3.9509229359038583e-02  3.9103021943445261e-02  3.9829703364236697e-02  3.9872542233991823e-02  3.8758098782559723e-02  3.7431109913371792e-02  3.7387233972278291e-02  3.7177254767384850e-02  3.7458518524810885e-02  3.7171474172863157e-02  3.6952275401465451e-02  3.6833923884666255e-02  3.7037072222988084e-02  3.6708549866468536e-02  3.6618150098010428e-02  3.7969772426281884e-02  3.3494861525615691e-02  3.3681234374775264e-02  3.2128623525183371e-02  3.2253065652191271e-02  3.2311335477835511e-02  3.2433953806527013e-02  3.2495328176887307e-02  3.1649774403088693e-02  3.1522508091092402e-02  3.1410240090498621e-02  3.2358965374736114e-02  3.1973151327028354e-02  3.1801147654052168e-02  3.1961953970411260e-02  3.1933059662198414e-02  3.1783920302750422e-02  3.2877956468755749e-02  3.3059860743902214e-02  3.2700058401182099e-02  3.2391639368141351e-02  3.2516253517163807e-02  3.3598907981803663e-02  3.3531532962221541e-02  3.3792945164867708e-02  3.4052357202920387e-02  3.6519527027711010e-02  3.6016816552108956e-02  3.5754391511559187e-02  4.9777430529904888e-02  4.9665979544838916e-02  4.9569110261149379e-02  4.9448916753234581e-02  4.9486231264831093e-02  4.9814110300617172e-02  4.9724026072071596e-02  4.9874888701617250e-02  4.9930691094966492e-02  4.9584766377548134e-02  4.9576257689118393e-02  4.9703931179345434e-02  4.9446247256835892e-02  4.9766226065500956e-02  4.9479112857255959e-02  4.9296494021661676e-02  4.9478540883728217e-02  4.6702257985118616e-02  4.6455723943509830e-02  4.6637684301178178e-02  4.8347088560653104e-02  4.7839961991347352e-02  4.7552884867287246e-02  4.7808466634473301e-02  4.7604945590986596e-02  4.7869834613706384e-02  4.7258724534495505e-02  4.6933658129003394e-02  4.7173773404970983e-02  2.7815032389152394e-03  1.6688915323307453e-03  2.6086576626553138e-03  5.3253460323075289e-03  5.2658028716223602e-03  5.8511166893132393e-03  6.9166829253282883e-03  7.4268674338976081e-03  7.0416711362980573e-03  4.4361347086380506e-03  9.0633273033830300e-03  1.0348151018076691e-02  9.1434436015078967e-03  8.1082245485740480e-03  8.1885957399554215e-03  7.3257423674775194e-03  7.1676164611871240e-03  6.4670028405874177e-03  7.0162785548853052e-03  6.3921837066601324e-03  5.7061983879606792e-03  6.7851259954064217e-03  7.4930633150472126e-03  8.4609441338467442e-03  9.0174963995712440e-03  8.1877259439886909e-03  6.5346439044846076e-03  1.7199490705048434e-02  1.7153661510962964e-02  1.6116381408043261e-02  1.5309663633387868e-02  1.6441318435085259e-02  1.5890038923461070e-02  1.7284026225715846e-02  2.9721958880495742e-02  2.9872403097217632e-02  3.0003758102955216e-02  2.9853487993476820e-02  2.8784387756634139e-02  2.5658473328386042e-02  2.5971197296661759e-02  2.4899384152958684e-02  2.8721786866505870e-02  3.1320522993230342e-02  3.0682317254656120e-02  3.0793333380269027e-02  3.0840741603872734e-02  3.0486347117219210e-02  3.0788151840275123e-02  3.0428008911664622e-02  3.0580426782050838e-02  3.0560322523201067e-02  3.0409258143315843e-02  2.9957796277109011e-02  3.0278717293879539e-02  2.9888693828595013e-02  3.0937258224913656e-02  3.0939978866352871e-02  3.1184846354241316e-02  3.1190638568305708e-02  3.0277301712804353e-02  3.0129544506441060e-02  2.9997260302245754e-02  3.0698052567659950e-02  3.0841977094507703e-02  3.0692822202877452e-02  3.0672530158594065e-02  3.0534767631757179e-02  3.0487609808780815e-02  3.0699414646061796e-02  3.0575553211583572e-02  3.0819761204161498e-02  3.0635245365392857e-02  3.0445340946387029e-02  3.0807524839321889e-02  3.0829162949137880e-02  3.1128142165939073e-02  3.1102362271962454e-02  3.0764001879568265e-02  2.5603126554150243e-02  2.5637722032208276e-02  2.4979332267584097e-02  2.5006696132107493e-02  2.7483660398203300e-02  2.7078435126247337e-02  2.6906957881149423e-02  2.7296593744530102e-02  2.7410557140768857e-02  2.7060893702733950e-02  2.7067589071378996e-02  2.7723541508701145e-02  2.7433973448331234e-02  2.7969510196579925e-02  2.7961794760829183e-02  2.8161018641748008e-02  2.7749551781505486e-02  2.7759050602630935e-02  1.7943798064192835e-02  1.7094368328165490e-02  1.7592053930483180e-02  1.7675719504089461e-02  1.8506307904948682e-02  2.5137212161023000e-02  2.5671085275190561e-02  2.5108326272198566e-02  2.3801891467205585e-02  2.3652996764092282e-02  2.2972495013072389e-02  2.4227727557833680e-02  2.3455079459763755e-02  2.4262826384189824e-02  6.9849229322724825e-03  7.0865597903362765e-03  7.2196193338221774e-03  7.1991734269480131e-03  7.4878106769459274e-03  7.5849149574939738e-03  2.3099180581559187e-02  2.4114901200985774e-02  2.3708560686017427e-02  2.3543816041932345e-02  2.2686661981340089e-02  2.4415696661015732e-02  2.3750842285390584e-02  2.4029926920339152e-02  2.2934772727917625e-02  2.3418638002334031e-02  2.4266322212342321e-02  3.0399802228497416e-02  2.9289877372741756e-02  3.0994961677413779e-02  2.9895271993701830e-02  3.4117788997446601e-02  3.2794184966493604e-02  3.3255697361529446e-02  4.6268779362130349e-02  4.6298274994042238e-02  4.6097275145926431e-02  3.0342688868535344e-02  3.0966223218551615e-02  3.0726142949680381e-02  2.8414944058988985e-02  2.7714218566615861e-02  2.7478151832545098e-02  2.7436120517272625e-02  2.6541900573559280e-02  6.9223387483140185e-03  7.0442228907774537e-03  6.9060801606733325e-03  7.0170108008401301e-03  1.7850304190489278e-02  1.8219315717044899e-02  1.8866069932155262e-02  1.7490775512756782e-02  1.6791857762746613e-02  1.6257505175304453e-02  1.7225312137228152e-02  1.8212475061163837e-02  1.6851577555724962e-02  1.4801807347358361e-02  1.5005746292935076e-02  1.6385650831334721e-02  1.3526946744738753e-02  1.2928092171497251e-02  1.2066626630100139e-02  1.1989235315204436e-02  1.8259327320771328e-02  1.8289986224967358e-02  1.7152493932443266e-02  7.7372067626238676e-03  8.2967766787624755e-03  8.0852562660878799e-03  8.7083352907474081e-03  7.9014612860830429e-03  7.5334639606878537e-03  9.0103447195967606e-03  8.6721089847052457e-03  9.8235820550504858e-03  9.6592979510688824e-03  9.8595176208153851e-03  1.0621739363093154e-02  1.0437966111617300e-02  9.7098869658399367e-03  1.1158649764106647e-02  2.0384402873705274e-02  2.0728517204027751e-02  2.1182052857323344e-02  2.0208656370253250e-02  2.1091266534489176e-02  2.1970056086225386e-02  1.7345518473718458e-02  1.7908966404800396e-02  1.8547702621246300e-02  4.9274612549241155e-02  4.9319621946285211e-02  4.9195539071222621e-02  4.9277807828716026e-02  4.8908587023825341e-02  4.8837446440368970e-02  4.8715632760400522e-02  4.8484101820745480e-02  4.8566491875683383e-02  4.8625900451412456e-02  4.8592100107510174e-02  4.8474566093976865e-02  4.6976081238542078e-02  4.7097327891155900e-02  4.7341153465759220e-02  4.7223049711527555e-02  4.6604735082758898e-02  4.6710800892453740e-02  4.6365123149649051e-02  4.6491527627603557e-02  4.6135584058509753e-02  4.6253257363408656e-02  4.5069959253644890e-02  4.6155441471056491e-02  4.6079196139661042e-02  4.6389474292227784e-02  4.5983684013876244e-02  4.5747111868482154e-02  4.7988432596553762e-02  4.7751543018319832e-02  3.8185324081416845e-02  3.8288438041050782e-02  3.8646283899174051e-02  3.8480082020462374e-02  3.8696236684850061e-02  4.2534386795902927e-02  4.3376700984460226e-02  4.3096145795373221e-02  4.3744281162945937e-02  4.3327761873085804e-02  4.4047307337176884e-02  2.7067872714744041e-02  2.5197423872837965e-02  2.5217467677351765e-02  4.1316267735909034e-03  3.0495075924592028e-02  3.0857286545293711e-02  3.2342266633026376e-02  3.6732961198284175e-03  4.2659943499551208e-03  3.8710870660198975e-03  4.1680254997345824e-03  3.9400919650194096e-03  4.0134253218350020e-02  4.0913557498310903e-02  4.0321705284602181e-02  4.0743449225132802e-02  4.1081111871683798e-02  3.9890016099117444e-02  4.0379765757404845e-02  3.2060816970978345e-02  3.3776906069361921e-02  3.2412137013429189e-02  3.5389672623919857e-02  3.5103675713227686e-02  3.4126355210621538e-02  3.8714343453215651e-02  3.9662750777084380e-02  3.9224301333554021e-02  3.8932345295200690e-02  3.7971447672722980e-02  3.7732142575308630e-02  3.8604678746666829e-02  3.6082517422472205e-02  3.6785408271997749e-02  3.5248748409367647e-02  3.3523837908216621e-02  3.4217644501586333e-02  3.2340569545336158e-02  3.6999680169400070e-02  3.7433631560844657e-02  3.6377045905637680e-02  3.3816831642359123e-02  3.5465753941286732e-02  2.1881586956100117e-02  2.2474367997317918e-02  2.2329513806793266e-02  2.3677596120818347e-02  2.4164706496684226e-02  2.5046927013325754e-02  2.3770203536045191e-02  2.6967097074780337e-02  2.7716557346238100e-02  2.7539342600677644e-02  2.7182015811679939e-02  2.6365976908633126e-02  2.6035204175800592e-02  2.8434722143357318e-02  2.9157781336950184e-02  2.7881439277754435e-02  2.7867798285861761e-02  2.9055123136857479e-02  2.6525806357439126e-02  2.5762983158924051e-02  2.5667861292472331e-02  2.7229822709956473e-02  2.6765274109216142e-02  2.2701979959268977e-02  2.3641400672906317e-02  2.3345401386726305e-02  2.2984425095038563e-02  2.2138779864707546e-02  2.1841299161633000e-02  2.5966909751903366e-02  2.5051324066404167e-02  2.5275922955553580e-02  1.4969143228763894e-02  1.3928059889084639e-02  1.4173054740888808e-02  2.3132512770454285e-02  2.2588045235438451e-02  4.1920011750321659e-02  4.1176752129567673e-02  4.1653243915937971e-02  4.1407541054133350e-02  4.0703916472715228e-02  4.2059181639985996e-02  4.1959298815032284e-02  4.1821516313235510e-02  4.1984757164683639e-02  4.1707167492077084e-02  4.1430213167375392e-02  4.1657311553063354e-02  4.1689684578094015e-02  4.1433832608846005e-02  4.1459423459549109e-02  4.0054079519948139e-02  3.9251847116305645e-02  3.7251912959847533e-02  3.6193740855006783e-02  3.6478150034407027e-02  4.1611557447944841e-02  4.1797012788681344e-02  4.0444170622620096e-02  4.1448342260922033e-02  5.8553565923811406e-03  4.3112557205513137e-02  4.3312868556684141e-02  4.3113225800046326e-02  4.2711141925887423e-02  4.2728580795774310e-02  4.2905134923159685e-02  4.2942942301142296e-02  4.4001748602245636e-02  4.3823198166980278e-02  4.4189108790418916e-02  4.4355028101810252e-02  4.4165029796772656e-02  4.3827682105453486e-02  4.4742060178215907e-02  4.4582437161840321e-02  4.4939428150292206e-02  4.4381526870727800e-02  4.4791837566466854e-02  4.4419232869459035e-02  4.5150525717848805e-02  4.5288453466618181e-02  3.3542831290225762e-02  3.3089733349006160e-02  3.2008490826041854e-02  3.6970066298677849e-02  3.5974655874797618e-02  3.7249506179389033e-02  3.7480193873143837e-02  3.8342080474922380e-02  3.6271029178123040e-02  3.9120381173870927e-02  3.8026223406577131e-02  3.8433566850630443e-02  2.0778905459880443e-02  2.0673609689086759e-02  2.1541057467931831e-02  2.8424073432201838e-02  2.9672056328867383e-02  3.0416513011785648e-02  4.1026898854933984e-02  4.1181281346471157e-02  4.1076374368795271e-02  4.0932827425023216e-02  4.0876588965779379e-02  4.0797594439507513e-02  4.0583575853956298e-02  4.0706186287156478e-02  4.0582593576763325e-02  4.1159271055534449e-02  4.1246048740614369e-02  4.1129326932334717e-02  4.1045817534044599e-02  4.1074080336036115e-02  4.0872527880167583e-02  4.0768097006807190e-02  4.0812465779431428e-02  4.0878207751620897e-02  4.0804688971693849e-02  4.0851910574281620e-02  4.0828819434403488e-02  4.0771189882872066e-02  4.0736857228327247e-02  4.0697632813214271e-02  4.0689767868918758e-02  4.0946731639512533e-02  4.0676848485419463e-02  4.0692304556370837e-02  4.0411407170572636e-02  3.7035073927441799e-02  3.7369218535440889e-02  3.6515829949595277e-02  3.6756814635495565e-02  3.7537926086872203e-02  4.0727189540074933e-02  3.9631234267084293e-02  3.9323641838356162e-02  3.8244547437203735e-02  3.7807693698144976e-02  3.7135380704771286e-02  3.7829101014988605e-02  3.7313460524622831e-02  3.8014172395898944e-02  3.8460081399435610e-02  3.8864686666191813e-02  3.8993722048666149e-02  3.8316932843380037e-02  3.8686932967579066e-02  3.5707431616665834e-02  3.5679565051634624e-02  3.5277481201435486e-02  2.9989415535120273e-02  3.0184753434134421e-02  3.0078667308582305e-02  3.6289974465282440e-02  3.6211027414141381e-02  3.7003263752256828e-02  3.7584888792309229e-02  3.2802642427436857e-02  3.2823464604833728e-02  3.2652487537875863e-02  3.2767860116261358e-02  3.2947184269262263e-02  3.2734031200563909e-02  3.3033354534717008e-02  3.3313500052957086e-02  3.3079308727936088e-02  3.3267938244575662e-02  3.3466956977558734e-02  3.3127205597007062e-02  3.2976554947305725e-02  3.3093343961127585e-02  3.3322941693998145e-02  3.3505157299600734e-02  3.1675360147477953e-02  3.1857390535656026e-02  3.1770641203221352e-02  3.1901717812882008e-02  3.2019967005465291e-02  3.2073350832797456e-02  3.2208494640783167e-02  3.2401292621359747e-02  3.2125670815361405e-02  3.2310122809685621e-02  3.2356899489538883e-02  3.2541668405229471e-02  3.2030967075736633e-02  3.1772182637318618e-02  3.0822046078475766e-02  3.1135537336205606e-02  3.1070991461932661e-02  3.0748115010503233e-02  3.2059195301805198e-02  3.1880227533151319e-02  3.1990379578966846e-02  3.1105390876061574e-02  3.1350815997016085e-02  3.1204426629864723e-02  3.1488396303311079e-02  3.1246635305452058e-02  3.1800496518031719e-02  3.1407480776808279e-02  3.1175336762444626e-02  3.1425446053378686e-02  3.2020997559877813e-02  3.1570925076304601e-02  3.1622949218561527e-02  3.3328634212028772e-02  3.3163814089359311e-02  3.2884218512689523e-02  3.3256505656344110e-02  3.3093986466426278e-02  3.0348361992179041e-02  3.0485627542926611e-02  3.3507333483330973e-02  3.3654199865442373e-02  3.3326465106853768e-02  3.4743435143118652e-02  3.4696603745832735e-02  3.4403581193837081e-02  3.6021062762283160e-02  3.5712326003574046e-02  3.5688777402736648e-02  3.3350008336070519e-02  3.4009342249770987e-02  3.3733098120929880e-02  3.3944574603412547e-02  3.6187855351602731e-02  3.6225463882463192e-02  3.5726467316664672e-02  3.5536372059814705e-02  3.5608959785859151e-02  4.9317704299300102e-02  4.9308195329483953e-02  4.9135036816413478e-02  4.9101237733743849e-02  4.9154761343299623e-02  4.9840749199989598e-02  4.9802625303972739e-02  4.9627403782809054e-02  4.9496660549800016e-02  4.9708231819487358e-02  4.9759456633714859e-02  4.9281821008063276e-02  4.7631937245271046e-02  4.7520831764170379e-02  4.7361664805969685e-02  4.7812161371855434e-02  4.8109554736130281e-02  4.8402905961595202e-02  4.8292775682241190e-02  4.8322401824854547e-02  4.8164305897332331e-02  4.7963382365048837e-02  4.8113318292402792e-02  4.7771026232397457e-02  4.7919629614486661e-02  4.8446179815175204e-02  4.7631231053806282e-02  4.7593270832709991e-02  4.7436204173989235e-02  4.7735904440959355e-02  4.7220238104831599e-02  4.7465848230245009e-02  4.7737329716932987e-02  4.9334645675939974e-02  4.9265354506346712e-02  4.9263328969113875e-02  4.5525448035506594e-02  4.5229886776256847e-02  4.5277433224168280e-02  4.5538345622021296e-02  4.6832872513471631e-02  4.6631935951289075e-02  4.7279482737110676e-02  4.7005969468225293e-02  4.7156377521302209e-02  4.7627831352972147e-02  4.7435615286029291e-02  4.7308970086042249e-02  4.7176751885494868e-02  4.6966994019655206e-02  4.6820621302226292e-02  4.6876196839728122e-02  4.6913327854669090e-02  4.7049646044221113e-02  4.7181257517966320e-02  4.6960022185586092e-02  4.8895011939868165e-02  4.9000802658590872e-02  4.8704746582446487e-02  4.8357838727055992e-02  4.8471101888691859e-02  4.7753056988616399e-02  4.7677599594115584e-02  4.8029846131277920e-02  4.7481902176668832e-02  4.7736607516065205e-02  4.7192895306744302e-02  4.7958025742051588e-02  4.8073303137738256e-02  4.6937467390522847e-02  4.7067913141050570e-02  4.7320336734226358e-02  4.6831204569860070e-02  4.8116502381584922e-02  4.8124898311490097e-02  4.8110963689837992e-02  4.7313576689239661e-02  4.7366529122009900e-02  4.7091020044123584e-02  1.8679572965064934e-03  7.119227663