<?xml version="1.0"?>
<VTKFile type="UnstructuredGrid"  version="0.1"  >
<UnstructuredGrid>
<Piece  NumberOfPoints="6340" NumberOfCells="12376">
<Points>
<DataArray  type="Float64"  NumberOfComponents="3"  format="ascii">-0.01917400024831295 0.02052499912679195 0  -0.01984300091862679 0.02114300057291985 0  -0.02006999962031841 0.02016999945044518 0  -0.02059699967503548 0.0208589993417263 0  -0.01940199919044971 0.0196090005338192 0  -0.01901599951088428 0.02139599993824959 0  -0.01950100064277649 0.02209700085222721 0  -0.01904400065541267 0.02292199991643429 0  -0.01994699984788895 0.02279400080442429 0  -0.01856300048530102 0.02212800085544586 0  -0.008081999607384205 0.01791699975728989 0  -0.00875800009816885 0.0187740009278059 0  -0.009087000042200089 0.01783300004899502 0  -0.009770999662578106 0.01872899942100048 0  -0.02606000006198883 0.07198800146579742 0  -0.02702799998223782 0.07230000197887421 0  -0.02715899981558323 0.07151699811220169 0  -0.02617200091481209 0.06556300073862076 0  -0.02685399912297726 0.06618999689817429 0  -0.02699499949812889 0.06530299782752991 0  -0.02776999957859516 0.06564000248908997 0  -0.01371300034224987 0.08441100269556046 0  -0.01459399983286858 0.08421999961137772 0  -0.01395300030708313 0.08364599943161011 0  -0.02039000019431114 0.07838799804449081 0  -0.01940399967133999 0.07863800227642059 0  -0.01996799930930138 0.07926099747419357 0  -0.01983200013637543 0.07775799930095673 0  -0.02154899947345257 0.02405199967324734 0  -0.02072099968791008 0.02425500005483627 0  -0.02106700092554092 0.02494800090789795 0  -0.02137199975550175 0.02565300092101097 0  -0.02191000059247017 0.0247540008276701 0  -0.02023099921643734 0.02515600062906742 0  -0.01985999941825867 0.02439800091087818 0  -0.0189839992672205 0.02452200092375278 0  -0.01937000080943108 0.02528399974107742 0  -0.02119899913668633 0.02334100008010864 0  -0.02210400067269802 0.02317800000309944 0  -0.02157000079751015 0.02212999947369099 0  -0.02109700068831444 0.02151300013065338 0  -0.02081900089979172 0.02258099988102913 0  -0.02032900042831898 0.02187000028789043 0  -0.01594600081443787 0.02190000005066395 0  -0.01644900068640709 0.02101599983870983 0  -0.01546999998390675 0.02101900056004524 0  -0.01685399934649467 0.02199199981987476 0  -0.01775199919939041 0.02196799963712692 0  -0.01727399975061417 0.02285500057041645 0  0.03763699904084206 0.07683199644088745 0  0.03751600161194801 0.07594399899244308 0  0.03864200040698051 0.07603300362825394 0  0.03813400119543076 0.08734799921512604 0  0.03878699988126755 0.08758600056171417 0  0.03774499893188477 0.08806899935007095 0  0.02097100019454956 0.09584999829530716 0  0.02124200016260147 0.09510800242424011 0  0.0219969991594553 0.09537400305271149 0  0.02002800069749355 0.09628699719905853 0  0.02031699940562248 0.09539099782705307 0  -0.009429999627172947 0.09243699908256531 0  -0.008542999625205994 0.09270399808883667 0  -0.009225999936461449 0.09325499832630157 0  -0.008325999602675438 0.09352599829435349 0  -0.02024099975824356 0.09133800119161606 0  -0.0204900000244379 0.09069500118494034 0  -0.01949699968099594 0.09096699953079224 0  -0.02117599919438362 0.09133099764585495 0  -0.01782999932765961 0.09684800356626511 0  -0.01820199936628342 0.09753800183534622 0  -0.01859400048851967 0.0968250036239624 0  -0.01289299968630075 0.09085799753665924 0  -0.01207400020211935 0.09103800356388092 0  -0.01274900045245886 0.09160000085830688 0  -0.01372000016272068 0.09068900346755981 0  -0.01304499991238117 0.09012900292873383 0  -0.01387100014835596 0.08996099978685379 0  -0.0165609996765852 0.09216500073671341 0  -0.01719300076365471 0.09270600229501724 0  -0.01742500066757202 0.09198100119829178 0  -0.01522599998861551 0.09107500314712524 0  -0.01607800088822842 0.0909079983830452 0  -0.01539499964565039 0.09035500138998032 0  0.008949999697506428 0.08998499810695648 0  0.0098860003054142 0.08988100290298462 0  0.009239000268280506 0.090597003698349 0  0.007207999937236309 0.07793000340461731 0  0.007786000147461891 0.07708899676799774 0  0.008143000304698944 0.07782500237226486 0  -0.007790000177919865 0.01703000068664551 0  -0.006969000212848186 0.01724700070917606 0  -0.008659999817609787 0.01691799983382225 0  -0.009566999971866608 0.01680099964141846 0  -0.01320999953895807 0.01676999963819981 0  -0.01345400046557188 0.01786099933087826 0  -0.01405899971723557 0.01696999929845333 0  -0.01264300011098385 0.01766899973154068 0  -0.01266600005328655 0.01870300062000751 0  -0.01182399969547987 0.01783799938857555 0  -0.01219199970364571 0.02164099924266338 0  -0.0126740001142025 0.02068500034511089 0  -0.01174500025808811 0.02071800082921982 0  -0.01128299999982119 0.01985099911689758 0  -0.01073199976235628 0.02069300040602684 0  -0.01222799997776747 0.01972099952399731 0  -0.01312700007110834 0.02166399918496609 0  -0.0145420003682375 0.02089899964630604 0  -0.0149959996342659 0.02185899950563908 0  -0.01406699977815151 0.02175699919462204 0  -0.009255999699234962 0.01967599987983704 0  -0.01104999985545874 0.03067000024020672 0  -0.0115539999678731 0.02980099990963936 0  -0.01057500019669533 0.02973899990320206 0  -0.005607999861240387 0.02937600016593933 0  -0.006101000122725964 0.0303179994225502 0  -0.00660800002515316 0.02945400029420853 0  -0.008289000019431114 0.0197330005466938 0  -0.005793999880552292 0.01916399970650673 0  -0.006777000147849321 0.01900500059127808 0  -0.006000000052154064 0.01831600069999695 0  -0.006082000210881233 0.0174809992313385 0  -0.005100000184029341 0.01774000003933907 0  0.04045400023460388 0.08391600102186203 0  0.04127100110054016 0.08332300186157227 0  0.04091700166463852 0.08448699861764908 0  0.03994899988174438 0.08472300320863724 0  0.01537999976426363 0.0582129992544651 0  0.01635799929499626 0.05801500007510185 0  0.01592499949038029 0.05892999842762947 0  0.02800899930298328 0.04228400066494942 0  0.02844100072979927 0.04121899977326393 0  0.02889199927449226 0.04187100008130074 0  0.03002499975264072 0.04608599841594696 0  0.03086999990046024 0.04533600062131882 0  0.0311840008944273 0.0460130013525486 0  0.02977400086820126 0.04942699894309044 0  0.02890199981629848 0.04961499944329262 0  0.0293979998677969 0.04865600168704987 0  0.02899700030684471 0.04791799932718277 0  0.02993199974298477 0.04769499972462654 0  0.02848800085484982 0.04886500164866447 0  0.02800099924206734 0.04981200024485588 0  0.02804600074887276 0.0481560006737709 0  0.02754000015556812 0.04747800156474113 0  0.02708600088953972 0.0483819991350174 0  0.02656199969351292 0.04769499972462654 0  0.03779200091958046 0.08613300323486328 0  0.03682100027799606 0.08624300360679626 0  0.03747700154781342 0.08553700149059296 0  0.036531001329422 0.08562000095844269 0  0.007391999941319227 0.0241749994456768 0  0.008093000389635563 0.02463199943304062 0  0.007404999807476997 0.0252509992569685 0  0.008169000037014484 0.02560099959373474 0  0.0261170007288456 0.04859999939799309 0  0.02233199961483479 0.05103100091218948 0  0.02189400047063828 0.05194300040602684 0  0.02135800011456013 0.05122699961066246 0  0.02285999990999699 0.05174500122666359 0  0.02843800000846386 0.0505560003221035 0  0.01760799996554852 0.03491500020027161 0  0.01677799969911575 0.03482099995017052 0  0.01716100051999092 0.03391300141811371 0  0.01250999979674816 0.04038999974727631 0  0.01163600012660027 0.04041700065135956 0  0.01206200011074543 0.039512999355793 0  0.0111870002001524 0.03954000025987625 0  0.01076200045645237 0.04044299945235252 0  0.01073800027370453 0.03866200149059296 0  0.01161300018429756 0.03863799944519997 0  0.01208500005304813 0.04129499942064285 0  -0.027708999812603 0.06649000197649002 0  -0.02662700042128563 0.06702800095081329 0  -0.02765299938619137 0.06726600229740143 0  -0.02589100040495396 0.06647399812936783 0  -0.02556299977004528 0.06733399629592896 0  -0.02453099936246872 0.06763699650764465 0  -0.02506900019943714 0.06826599687337875 0  -0.02389599941670895 0.06703700125217438 0  -0.0235190000385046 0.0679209977388382 0  -0.02409599907696247 0.06854300200939178 0  -0.027793999761343 0.06477099657058716 0  -0.01955400034785271 0.08012200146913528 0  -0.0205290000885725 0.07988099753856659 0  -0.02002199925482273 0.08800800144672394 0  -0.02091200090944767 0.08785299956798553 0  -0.02025399915874004 0.08727599680423737 0  -0.02114100009202957 0.08712500333786011 0  -0.0204900000244379 0.08653700351715088 0  -0.01951999962329865 0.09028799831867218 0  -0.01868199929594994 0.09044600278139114 0  -0.01857499964535236 0.09113699942827225 0  -0.01484899967908859 0.08344399929046631 0  -0.01182300038635731 0.07826100289821625 0  -0.01084099989384413 0.07851199805736542 0  -0.01142000034451485 0.07912500202655792 0  -0.01106599997729063 0.07996299862861633 0  -0.01046700030565262 0.0793600007891655 0  -0.01569600030779839 0.07566999644041061 0  -0.01615200005471706 0.07474300265312195 0  -0.0151589997112751 0.07500900328159332 0  -0.01416600029915571 0.07527600228786469 0  -0.01461200043559074 0.07435200363397598 0  -0.01884200051426888 0.07801300287246704 0  -0.01830000057816505 0.07736799865961075 0  -0.01929599978029728 0.07710699737071991 0  -0.02029399946331978 0.07684600353240967 0  -0.024702999740839 0.06916599720716476 0  -0.02539999969303608 0.07137300074100494 0  -0.02501999959349632 0.07226800173521042 0  -0.02238599956035614 0.02373299933969975 0  -0.02266000024974346 0.02426999993622303 0  -0.02284399978816509 0.02478500083088875 0  -0.02304200083017349 0.02534000016748905 0  -0.0221829991787672 0.02548700012266636 0  -0.01946399919688702 0.02365400083363056 0  -0.01858000084757805 0.02376800030469894 0  -0.02035300061106682 0.02350899949669838 0  -0.02182899974286556 0.02263800054788589 0  -0.01739300042390823 0.01817299984395504 0  -0.01702000014483929 0.01893899962306023 0  -0.01813000068068504 0.01854000054299831 0  -0.01663599908351898 0.01779600046575069 0  -0.01812900044023991 0.02293499931693077 0  -0.01638
[...]
<PointData  Scalars="pressure"> 
<DataArray  type="Float64"  Name="pressure"  format="ascii">3.4455679917595232e-02  3.4468413764288948e-02  3.4480200249915216e-02  3.4503846621077285e-02  3.4462857268936720e-02  3.4468681079254188e-02  3.4473646117432533e-02  3.4468772383073276e-02  3.4471887854213505e-02  3.4469655309847913e-02  3.4319576072177380e-02  3.4340699547213901e-02  3.4322885723586855e-02  3.4337905870060074e-02  2.3109096954188606e-02  2.4104135686888163e-02  2.4529274094708679e-02  2.3966868882241546e-02  2.4574707007013308e-02  2.4462837944646230e-02  2.5340496811431724e-02  1.6767796040900035e-02  1.7357120339124517e-02  1.7231909327523963e-02  2.0710900541913890e-02  2.0510534185719225e-02  2.0485618821889318e-02  2.0740320746433331e-02  3.4444264132558723e-02  3.4428954789108471e-02  3.4376863007574296e-02  3.4304215932211973e-02  3.4382464138891594e-02  3.4383509451477348e-02  3.4430203690452653e-02  3.4431349851890343e-02  3.4391611833507446e-02  3.4480635693553946e-02  3.4560560139222131e-02  3.4561054979515872e-02  3.4527403734250443e-02  3.4484409274713579e-02  3.4477003576161930e-02  3.4428952391213893e-02  3.4436689734328091e-02  3.4415880126451019e-02  3.4447663961013238e-02  3.4461384358038791e-02  3.4451891467036845e-02  2.4411777925294208e-02  2.2879826388985565e-02  2.3916016672936573e-02  3.9099817392242921e-02  3.9667862243502751e-02  4.1244947136866647e-02  2.9532483583604066e-02  2.9237652982473984e-02  3.1840888092027279e-02  2.7476599600983909e-02  2.7096894662910917e-02  1.0050100967919501e-02  9.5716185207115959e-03  9.6981901118385096e-03  9.2737348771679308e-03  1.6867722114314528e-02  1.7381971655989946e-02  1.5606703580312548e-02  1.9247457541900374e-02  1.3936866390526268e-02  1.4587862096295926e-02  1.5555148248836859e-02  1.2683018070540723e-02  1.2109652363385577e-02  1.2201575750013766e-02  1.3243301943004094e-02  1.3182460804803574e-02  1.3756924139445818e-02  1.3806069198821222e-02  1.3766654746260071e-02  1.4268293854448064e-02  1.3810944742614465e-02  1.4306603483115575e-02  1.4315852187814709e-02  4.7096779884862779e-03  4.8950872411198110e-03  5.3329232056245832e-03  1.6679911084397092e-03  2.5632240845436180e-03  2.4249163442124251e-03  3.4323351548075885e-02  3.4311193452815109e-02  3.4324668264074550e-02  3.4333737254775371e-02  3.4320120017689450e-02  3.4334934348636686e-02  3.4325831476167738e-02  3.4330013587842913e-02  3.4347527922495326e-02  3.4325863370218854e-02  3.4348448120516045e-02  3.4356799132912431e-02  3.4345663939474289e-02  3.4342650583923731e-02  3.4341166561639512e-02  3.4348732708121589e-02  3.4362572800587465e-02  3.4393983472379736e-02  3.4406262991677081e-02  3.4382522175767399e-02  3.4342593825800974e-02  3.4298362151923972e-02  3.4270894465260611e-02  3.4291716797186338e-02  3.4298277694963873e-02  3.4293740118015378e-02  3.4310994602407753e-02  3.4346559975425052e-02  3.4358910235824804e-02  3.4350740225071605e-02  3.4327791123729981e-02  3.4307237577127690e-02  3.4329322480708038e-02  3.0526787348169080e-02  2.9690851408698243e-02  3.1174075838733786e-02  3.2159690585930129e-02  2.3052974346721454e-02  2.4052116109932596e-02  2.2979160704063577e-02  3.7706251174767197e-02  3.7411863381840577e-02  3.7602212604409734e-02  3.8875269571585339e-02  3.8654306521558081e-02  3.8795533534819321e-02  3.9044542582186460e-02  3.8820541095087639e-02  3.8960585103134077e-02  3.8860832075757704e-02  3.9013420535829069e-02  3.8733501986897498e-02  3.8498576970167855e-02  3.8629003097217625e-02  3.8501432984836839e-02  3.8301593760581967e-02  3.8168624581124799e-02  3.6007735465226738e-02  3.6304276390587246e-02  3.4699107077383995e-02  3.4915479756276645e-02  3.4308496782456996e-02  3.4291359337731475e-02  3.4313980613082391e-02  3.4337591083562997e-02  3.7862361127077415e-02  3.4499526726786155e-02  3.3592730967078543e-02  3.3579089018933139e-02  3.4551032261362635e-02  3.8579162367632591e-02  3.5007607249139608e-02  3.4892552253149772e-02  3.4904716515046598e-02  3.3766158617588637e-02  3.3540042968881530e-02  3.3888935938278790e-02  3.3696037806403338e-02  3.3325107688447105e-02  3.3816594531894319e-02  3.3989173636077750e-02  3.3360196234158271e-02  2.5230479605369865e-02  2.4138156716619712e-02  2.4748915864971549e-02  2.3841639864739847e-02  2.3661263124565474e-02  2.3516953722420464e-02  2.3417551753294578e-02  2.3601298106548829e-02  2.3369876435833971e-02  2.3276873879786213e-02  2.5119334091032019e-02  2.0238008436128545e-02  2.0433952727698820e-02  1.7385931195948653e-02  1.7692120102056112e-02  1.7835903231725979e-02  1.8097326673369111e-02  1.8256351043966924e-02  1.5885485378358797e-02  1.5590373980700553e-02  1.5170102973926337e-02  1.7814137243179207e-02  1.6863352803636052e-02  1.5858970196304813e-02  1.6372253144209287e-02  1.5900808342582853e-02  1.5389448154932759e-02  1.9797192862655178e-02  2.0135371589205114e-02  1.9612027320745195e-02  1.8987511575257670e-02  1.9390200567438474e-02  2.0510200215919597e-02  2.0493617672772656e-02  2.0752042675603502e-02  2.0966388690416501e-02  2.3186270534362959e-02  2.2673749167171086e-02  2.2459404857586941e-02  3.4530836145046234e-02  3.4505510700391533e-02  3.4453571195072349e-02  3.4397310034577459e-02  3.4302685577675386e-02  3.4457533989138901e-02  3.4452500744000303e-02  3.4461003224587464e-02  3.4564866083387276e-02  3.4426790051353337e-02  3.4420639722264702e-02  3.4435211426697442e-02  3.4399814362405814e-02  3.4461960247981420e-02  3.4435724266891565e-02  3.4416615523765959e-02  3.4434579883573700e-02  3.4264973891415265e-02  3.4266735095432814e-02  3.4221005010569197e-02  3.4339361939156342e-02  3.4322852358498156e-02  3.4317078886081945e-02  3.4316030418378309e-02  3.4328332731632390e-02  3.4332919438850959e-02  3.4312356276891512e-02  3.4308096421695140e-02  3.4304379231989673e-02  3.3896336205303169e-02  3.3917667975888570e-02  3.6024500677940739e-02  3.0867112694140646e-02  3.2020041902757410e-02  3.2341945195702944e-02  2.7918324240923654e-02  2.8058381450050802e-02  2.7317467307912770e-02  2.3349061391307296e-02  4.3541164829319051e-02  4.4197560494309576e-02  4.2044068896630919e-02  4.1109024919784722e-02  4.2845450471173274e-02  4.2021782724596120e-02  3.4945910578553292e-02  3.3654414182712047e-02  3.3698685157128337e-02  3.2499499204558829e-02  3.7580575469099209e-02  3.9774678387328351e-02  3.9226103109736725e-02  3.9730669726782415e-02  3.9001094550877885e-02  3.7818275030457267e-02  3.7779096733539963e-02  2.3250372911478724e-02  2.1381547375197506e-02  2.1111561145164884e-02  2.4621116948925284e-02  2.5763553373040256e-02  2.3754143153397168e-02  2.5260875949793718e-02  1.1098747796997915e-02  1.1216612026434661e-02  1.1647383327828536e-02  1.1541759062291563e-02  9.9142076199003615e-03  8.1145810929961967e-03  8.2536913000810473e-03  8.1253427682449093e-03  9.3603990518020715e-03  1.8918018406508530e-02  1.6215369268228905e-02  1.7047811229104148e-02  1.5250839736257750e-02  1.5985934529388360e-02  1.3807308956335704e-02  1.1883707375568920e-02  1.2375395207073049e-02  1.2356423588790754e-02  1.1928206348414162e-02  1.1790130004077377e-02  1.2207068150771314e-02  1.1458105851846003e-02  1.4042805569037602e-02  1.4152652420928872e-02  1.4696867796281122e-02  1.4806903384328935e-02  1.2598938839345779e-02  1.1751948840696060e-02  1.1315044237183689e-02  1.2795027861974149e-02  1.3265871921232802e-02  1.2836074623113519e-02  1.2854983037621066e-02  1.2392704094064545e-02  1.2747633599343370e-02  1.3287774568486019e-02  1.2807936704270750e-02  1.3796876956492739e-02  1.2848844734973447e-02  1.2341642354950562e-02  1.3332942138723715e-02  1.3347380112363185e-02  1.4212156709886513e-02  1.4294739559923780e-02  1.3324739462829130e-02  7.0207490954424627e-03  7.2596744384348481e-03  7.3975621851537360e-03  7.5707168547581027e-03  7.5963011111523440e-03  7.7163296052398210e-03  7.3425118229400003e-03  7.1832781137344259e-03  1.8777353358044695e-03  2.5593820504331496e-03  2.1545701685042086e-03  1.8106253926481290e-03  2.2513910789583799e-03  2.6520705115756875e-03  1.9811694687812027e-03  2.5047745036843178e-03  2.2862659323675677e-03  2.8253297656583472e-03  1.4712799183958737e-02  1.5247781772639179e-02  1.6049155802195868e-02  1.4015500113358217e-02  1.3493108470730070e-02  4.9836965152069458e-03  4.1358036187657543e-03  5.0445526420899410e-03  7.2521480308517933e-03  7.4709440700153444e-03  7.7779873218179647e-03  7.7160481371094831e-03  7.9121722854473830e-03  7.6198693999196022e-03  7.6581112353014021e-03  8.3700701170406205e-03  7.1121688436809744e-03  6.4280896954961204e-03  6.0287474418471293e-03  6.7554039023568144e-03  3.7232806497714474e-03  3.9383342840545142e-03  4.9441846059976487e-03  2.8130239510994644e-03  4.7651787201958284e-03  1.2265941674356639e-02  1.2517566441742765e-02  1.1171196907216546e-02  2.5066964939388241e-02  2.5140446642747803e-02  2.6166036191034785e-02  3.2578627825638515e-02  3.1536539320843604e-02  3.2620784327444759e-02  3.1573420847077663e-02  3.2616401085363782e-02  3.1665293316240593e-02  3.1740290223206367e-02  3.4311220438084086e-02  3.4287867425406821e-02  3.4334367392837691e-02  1.6763466275195413e-02  1.6783099389670673e-02  1.7266383089677061e-02  1.6326234319502916e-02  1.6971592782812784e-02  1.6419474897272739e-02  1.5854411897804774e-02  1.6541721852163134e-02  9.0568734726454957e-03  1.0905708454508344e-02  9.9118626379711590e-03  9.3265258670203466e-03  3.0431576899253521e-02  2.9605167625979489e-02  3.0688185775728401e-02  3.1194693241103036e-02  3.0094533977134571e-02  3.0791140946914271e-02  3.1888868994316005e-02  3.3040788713964674e-02  3.2586537856449847e-02  3.3600262167267664e-02  3.3547587903276062e-02  3.4638414278546394e-02  3.2345176768862137e-02  6.5413000629882916e-03  5.9093094655179867e-03  6.5083874924622698e-03  8.1112891293819434e-03  7.9054399530848266e-03  7.8114092912767545e-03  4.7886378261181167e-03  3.9482847358355243e-03  4.2904212520129409e-03  3.4660483970718713e-03  5.1361334017509114e-03  5.3706664200957321e-03  3.3189376313346071e-03  3.8503714818961220e-03  4.2723358798325388e-03  5.5692437499942141e-03  7.1081948996806928e-03  7.5133614727514141e-03  6.7674699113361853e-03  6.3127131036452254e-03  5.8806729077709036e-03  2.3108916046341681e-03  3.3614881196539249e-03  1.5276408289664131e-03  1.3978577955890241e-03  8.1194945967468998e-04  3.4933433884108515e-03  5.5899269626840352e-03  4.3211848298330864e-03  5.6308935926512767e-03  3.4399363058241296e-02  3.4376648911691662e-02  3.4351307746413727e-02  3.4368776822206848e-02  3.4360416543644259e-02  3.4330821393294950e-02  3.4318234974788357e-02  3.4338898660449757e-02  3.4336037939068122e-02  3.4322420820280225e-02  3.4329031175922099e-02  3.4327134501070791e-02  3.4276997908140150e-02  3.4284763904829881e-02  3.4279964300990069e-02  3.4260852068959256e-02  3.4301171982666405e-02  3.4303547942842273e-02  3.4309427168277243e-02  3.4306944335123823e-02  3.4309297926833938e-02  3.4308527062502536e-02  3.4285393578859409e-02  3.4385870619543464e-02  3.4370820171716533e-02  3.4371193371290638e-02  3.4353031438327908e-02  3.4367569901065091e-02  3.4344886868819514e-02  3.4352703471730153e-02  2.4546539320933421e-02  2.5529019276357170e-02  2.4436222736339452e-02  2.4374804480747293e-02  2.4793164174454117e-02  3.0394112336121777e-02  3.1214285977418387e-02  3.1203700980714132e-02  3.0043229341956648e-02  2.9526241846257361e-02  3.0108203635731991e-02  3.8134760728219093e-02  3.7906070031703196e-02  3.7861264004889039e-02  2.2875662014784286e-02  3.8662748209698679e-02  3.8583864777337648e-02  3.9011587499557410e-02  2.9214715742200716e-02  2.7234058506076325e-02  2.6545946428268786e-02  2.8182184837005082e-02  2.8076777390517761e-02  3.9575506867037806e-02  3.9388823178925982e-02  3.9435409407390862e-02  3.9526975450908407e-02  3.9215133080945368e-02  3.9404436595734921e-02  3.9290887524596675e-02  3.7733812855087735e-02  3.8354404454050306e-02  3.8377377390390252e-02  3.8757189977783241e-02  3.8315576763182431e-02  3.8885683332225876e-02  3.8293416103169345e-02  3.8669340845557641e-02  3.8763847752696437e-02  3.9158313226475935e-02  3.9098423717798189e-02  3.8779760064997636e-02  3.8823551560746988e-02  3.7141196246053838e-02  3.7800617201631900e-02  3.7103779450473627e-02  3.6308583060563560e-02  3.7071103305495401e-02  3.6285523483540874e-02  3.9158685007266374e-02  3.9054235571270336e-02  3.9159760435005408e-02  3.9104555219371097e-02  3.9477342245353250e-02  2.0005467985586924e-02  1.9093972318205414e-02  1.9044787606025754e-02  2.7043360922188463e-02  2.7091058520839317e-02  2.8168470751093532e-02  2.6094419532970672e-02  1.3394670828321723e-02  1.2390909309161948e-02  1.3084271059844430e-02  1.2769801568954546e-02  1.3774161703319221e-02  1.4383437780709510e-02  2.2044421426464726e-02  2.3008914970497455e-02  2.2275047261626608e-02  2.1139661854316351e-02  2.1837469266716290e-02  1.9722433155375620e-02  1.9933890801701735e-02  1.9174403842508701e-02  2.1355023673400232e-02  2.0512088851460095e-02  1.7334054491238544e-02  1.6372391832469017e-02  1.6566803097722731e-02  1.7221250975271881e-02  1.8184324100274339e-02  1.8311820328749402e-02  1.3876136593954707e-02  1.4875977055645062e-02  1.4610750393692688e-02  2.1346205231070704e-02  2.1509455824910737e-02  2.0536885364823867e-02  1.8168413023746031e-02  1.9161450998084466e-02  3.7934374595237547e-02  3.9189409138845471e-02  3.9182444141168352e-02  3.9261412273475203e-02  3.9135482796699074e-02  3.8889301535236440e-02  3.9006168014529566e-02  3.9086157068909264e-02  3.8684336422194959e-02  3.8902904835334748e-02  3.9109375527618617e-02  3.8303458416849859e-02  3.8559700665663374e-02  3.8386901596147854e-02  3.8590818186024459e-02  3.7725069492272521e-02  3.7334426557999734e-02  3.4990170453759177e-02  3.4287836922305366e-02  3.4224817844659236e-02  3.8041049871522438e-02  3.8159885071364884e-02  3.8408829614994415e-02  3.8740305872921724e-02  3.3467330694239225e-02  3.4324642810163716e-02  3.4318060763637609e-02  3.4293008873173637e-02  3.4353316964454830e-02  3.4369320837759523e-02  3.4361013966921553e-02  3.4365542565648569e-02  3.4374607195972171e-02  3.4354964438119112e-02  3.4391534362041898e-02  3.4400999519665958e-02  3.4381124120470487e-02  3.4352118523627045e-02  3.4410480997331822e-02  3.4387904605205979e-02  3.4398118702769431e-02  3.4396745741993105e-02  3.4370986235733210e-02  3.4353312243594149e-02  3.4381366567897788e-02  3.4401477688815567e-02  3.3633387850548278e-02  3.3650768282111505e-02  3.2649195520817471e-02  3.6249753015268817e-02  3.5430699003209658e-02  3.6168252493865599e-02  3.6087580747033901e-02  3.6816076254495726e-02  3.5374926734528023e-02  3.8222744481271442e-02  3.7736327250642715e-02  3.7679545385660360e-02  2.8968986249270488e-02  2.7956276630876440e-02  2.8989600042025991e-02  3.4407697142358765e-02  3.4450090096549729e-02  3.5375993083586292e-02  3.4901500265131856e-02  3.4760711755223633e-02  3.4831138089005842e-02  3.5023652536594417e-02  3.4954759322218400e-02  3.5085275453683985e-02  3.4770190111596738e-02  3.4794644001744347e-02  3.4876142651022859e-02  3.6398084967189374e-02  3.6548489686473305e-02  3.6578082059886240e-02  3.6414746722501591e-02  3.6248433131566102e-02  3.6269278966734660e-02  3.6088503463191923e-02  3.6082131930030077e-02  3.5740445018886229e-02  3.5742941988437200e-02  3.5524346420539601e-02  3.5404082379972925e-02  3.5551891719847156e-02  3.5726705359864781e-02  3.5720190050013242e-02  3.5550001044362109e-02  3.3900286705218323e-02  3.3865959967221526e-02  3.3717706915224924e-02  3.3663232914942255e-02  3.2841758543344805e-02  3.3278439887710509e-02  3.2638835454800841e-02  3.2429930790304762e-02  3.3053701422896792e-02  3.4705383022562264e-02  3.4080290478466169e-02  3.3984144763602002e-02  3.3591277884354960e-02  3.3439190976700527e-02  3.2325641739855152e-02  3.2922230104063414e-02  3.2677831231417057e-02  3.3252066948942435e-02  3.3435989888462553e-02  3.3603896983608258e-02  3.3867473900926828e-02  3.3152309742213129e-02  3.3118370861315041e-02  2.2728743377421392e-02  2.2735287294212481e-02  2.2431857428138094e-02  1.1701684806803433e-02  1.2682191699451820e-02  1.1626999030124999e-02  2.3032807802912895e-02  2.2937771688108448e-02  2.3467743926650308e-02  2.3933545125709693e-02  1.8952508776088998e-02  1.9039555141945767e-02  1.8666599757780122e-02  1.8855952942546009e-02  1.9213048570371462e-02  1.9463463835290178e-02  1.9958610506734469e-02  2.0776207898681086e-02  2.3210496895101951e-02  2.3208512906442776e-02  2.0272564441466686e-02  1.9535021031960399e-02  1.9317631868066964e-02  1.9410257870988219e-02  1.9988915178487512e-02  2.0186722349202019e-02  1.9852064388891276e-02  1.8550196229727055e-02  2.0514219180186165e-02  1.6819999960326654e-02  1.8606981069943143e-02  1.7244720851482223e-02  1.8986316504239688e-02  1.9392091512028403e-02  2.1178015178336319e-02  2.1550723364497103e-02  1.7939147620524905e-02  1.8359106740947442e-02  1.6881754592781156e-02  1.6551221517751961e-02  1.2603154080195819e-02  1.3421740213211523e-02  1.2980522180245823e-02  1.2056150403022353e-02  1.6393664959299763e-02  1.5482084845612405e-02  1.5964184425829052e-02  1.1637493383015368e-02  1.2790101290249710e-02  1.2035289571180465e-02  1.3474103560671346e-02  1.2423882382502055e-02  1.5077054275870708e-02  1.4304581028378048e-02  1.3831248707551881e-02  1.4643103009842527e-02  1.6588600291272529e-02  1.3857671252091336e-02  1.4810926749366808e-02  2.0375827764112373e-02  2.0083805797181109e-02  1.9961676252076441e-02  2.0463501980992827e-02  2.0316782335123011e-02  1.2627462952517994e-02  1.3596215633943025e-02  2.0787844760563626e-02  2.0883306301401592e-02  2.0653324147176161e-02  2.1819069246912518e-02  2.1846509973860367e-02  2.1552564727255825e-02  2.2859770739893329e-02  2.2656602002010522e-02  2.2593524893433047e-02  2.0241273757372575e-02  2.0998096742752489e-02  2.0746485571313211e-02  2.1006529368768338e-02  2.3645548899985110e-02  2.4703842751406250e-02  2.3161255911638159e-02  2.3040477738915266e-02  2.2263150545604120e-02  3.4206802732349585e-02  3.4329212714481312e-02  3.4111341481087361e-02  3.4113362975644712e-02  3.4283318684633288e-02  3.4448856337591420e-02  3.4446518841782188e-02  3.4436857102397231e-02  3.4416990409624926e-02  3.4452201433295894e-02  3.4449364593469305e-02  3.4414309153981644e-02  3.3380314234396045e-02  3.3426831237756804e-02  3.3248973459586328e-02  3.3547052478775451e-02  3.3662937813304705e-02  3.3775074602787836e-02  3.3803451612012154e-02  3.4190498767471246e-02  3.4226115876008704e-02  3.4126942655628628e-02  3.4079488317664587e-02  3.4005689962496144e-02  3.3948312321614868e-02  3.4145158631853800e-02  3.4067336662927154e-02  3.3867117171952253e-02  3.3718183516114747e-02  3.3803646749920535e-02  3.3061549489575889e-02  3.3205280566442404e-02  3.3348009046442167e-02  3.4333330389424356e-02  3.4350694418791954e-02  3.4411491582893153e-02  3.0735428833402353e-02  3.0430625644673966e-02  3.0360592623995618e-02  3.0649766988090861e-02  3.4172342831918286e-02  3.4163338092835185e-02  3.4157841528862261e-02  3.4124701797306908e-02  3.4059659618682563e-02  3.4208810148108379e-02  3.4236563114159874e-02  3.3788487576711781e-02  3.3632031285250719e-02  3.3551692741947296e-02  3.3483261008324008e-02  3.3369079351337483e-02  3.4016998568421164e-02  3.3942255116673474e-02  3.3862744089234363e-02  3.3806305487408067e-02  3.4367454087968166e-02  3.4385146095169135e-02  3.4358502241472480e-02  3.4330956949950184e-02  3.4344890579250380e-02  3.4308931126646340e-02  3.4305143726005537e-02  3.4318955951787217e-02  3.4297442952284221e-02  3.4302310189949940e-02  3.4293794862867981e-02  3.4316495558201043e-02  3.4320361172481176e-02  3.4294867023222070e-02  3.4298743986057853e-02  3.4299047325516509e-02  3.4304207689306809e-02  3.4337014745147151e-02  3.4342431918860383e-02  3.4332389859923158e-02  3.4322092572134810e-02  3.4335443385508396e-02  3.4331710164099444e-02  3.2152052785157433e-02  3.142864563