<?xml version="1.0"?>
<VTKFile type="UnstructuredGrid"  version="0.1"  >
<UnstructuredGrid>
<Piece  NumberOfPoints="6340" NumberOfCells="12376">
<Points>
<DataArray  type="Float64"  NumberOfComponents="3"  format="ascii">-0.0191469993442297 0.02058600075542927 0  -0.01976300030946732 0.02118499949574471 0  -0.01999999955296516 0.02022000029683113 0  -0.02048099972307682 0.02087399922311306 0  -0.0193840004503727 0.01967299915850163 0  -0.01897799968719482 0.02145300060510635 0  -0.01941899955272675 0.02213500067591667 0  -0.0189679991453886 0.02296300046145916 0  -0.01982299983501434 0.02279900014400482 0  -0.01853399910032749 0.02218599990010262 0  -0.008665000088512897 0.01774900034070015 0  -0.009298999793827534 0.01864499971270561 0  -0.009631999768316746 0.01770699955523014 0  -0.01027300022542477 0.01864200085401535 0  -0.02479499951004982 0.07064200192689896 0  -0.02571200020611286 0.0708950012922287 0  -0.02585499919950962 0.0701339989900589 0  -0.02503100037574768 0.0643950030207634 0  -0.02567600086331367 0.06497900187969208 0  -0.02582200057804585 0.06410299986600876 0  -0.02655999921262264 0.06440000236034393 0  -0.01269599981606007 0.08306500315666199 0  -0.0135319996625185 0.08284299820661545 0  -0.01293199975043535 0.08233500272035599 0  -0.01919399946928024 0.07705099880695343 0  -0.0182460006326437 0.07733800262212753 0  -0.01876600086688995 0.0778999999165535 0  -0.01868100091814995 0.07648099958896637 0  -0.02131099998950958 0.02395300008356571 0  -0.02052100002765656 0.02419799938797951 0  -0.02083400078117847 0.02485200017690659 0  -0.02111000008881092 0.02552100084722042 0  -0.02163900062441826 0.0246140006929636 0  -0.02003699913620949 0.0251030009239912 0  -0.01970499940216541 0.0243769995868206 0  -0.01887499913573265 0.0245360005646944 0  -0.01922100037336349 0.02526599913835526 0  -0.02099299989640713 0.02328100055456161 0  -0.02185500040650368 0.0230689998716116 0  -0.02136999927461147 0.02208000048995018 0  -0.02093799971044064 0.02149399928748608 0  -0.02065099962055683 0.02255400083959103 0  -0.02020500041544437 0.02187700010836124 0  -0.01607199944555759 0.02197800017893314 0  -0.01656799949705601 0.02109700068831444 0  -0.0156440008431673 0.02109199948608875 0  -0.0169259998947382 0.02207599952816963 0  -0.01777300052344799 0.02203899994492531 0  -0.01730200089514256 0.02292600087821484 0  0.03872900083661079 0.07642800360918045 0  0.03857000172138214 0.07554899901151657 0  0.03973700106143951 0.07562299817800522 0  0.03954999893903732 0.0866440013051033 0  0.04022999852895737 0.08686500042676926 0  0.03915299847722054 0.08730699867010117 0  0.02180599980056286 0.09442900121212006 0  0.02208000048995018 0.09374599903821945 0  0.0228669997304678 0.09399300068616867 0  0.02083100005984306 0.09482900053262711 0  0.02112199924886227 0.09400399774312973 0  -0.00890399981290102 0.09073600172996521 0  -0.008119000121951103 0.09103100001811981 0  -0.00876300036907196 0.09151200205087662 0  -0.007965999655425549 0.09181299805641174 0  -0.01883799955248833 0.08923400193452835 0  -0.01907400041818619 0.08862099796533585 0  -0.01813600026071072 0.08892200142145157 0  -0.01971999928355217 0.08918300271034241 0  -0.01672700047492981 0.09447500109672546 0  -0.01709599979221821 0.09509900212287903 0  -0.01742400042712688 0.09442199766635895 0  -0.01197700016200542 0.08912400156259537 0  -0.0112330000847578 0.08932600170373917 0  -0.01187200006097555 0.08981899917125702 0  -0.01274000015109777 0.08892799913883209 0  -0.01210100017488003 0.08843699842691422 0  -0.01286400016397238 0.08824200183153152 0  -0.01541000045835972 0.09017399698495865 0  -0.01600899919867516 0.09064900130033493 0  -0.01621099933981895 0.08996199816465378 0  -0.01414600014686584 0.08921899646520615 0  -0.01493700034916401 0.08902399986982346 0  -0.01429099962115288 0.08854000270366669 0  0.009259999729692936 0.08898100256919861 0  0.01023100037127733 0.08888799697160721 0  0.009566999971866608 0.08954600244760513 0  0.007331000175327063 0.07785599678754807 0  0.00790799967944622 0.07704299688339233 0  0.008301000110805035 0.07776299864053726 0  -0.00839999970048666 0.01683999970555305 0  -0.007612999994307756 0.01702000014483929 0  -0.009238000027835369 0.016762999817729 0  -0.01011199969798326 0.01668299920856953 0  -0.01360000018030405 0.01678000018000603 0  -0.01380699966102839 0.01788300089538097 0  -0.01439900044351816 0.01699900068342686 0  -0.01303999964147806 0.01766899973154068 0  -0.01304300036281347 0.01871299929916859 0  -0.01225499995052814 0.01781200058758259 0  -0.01252899970859289 0.02165899984538555 0  -0.01300700008869171 0.0207080002874136 0  -0.01212299987673759 0.02071700058877468 0  -0.01169800013303757 0.01982700079679489 0  -0.01115499995648861 0.02065899968147278 0  -0.01260400004684925 0.01972600072622299 0  -0.01341500040143728 0.02170299924910069 0  -0.0147709995508194 0.02096300013363361 0  -0.01517700031399727 0.02192899957299232 0  -0.01430200040340424 0.02181600034236908 0  -0.00976100005209446 0.01957800053060055 0  -0.01125000044703484 0.0307180006057024 0  -0.01174599956721067 0.02985600009560585 0  -0.0108200004324317 0.02977200038731098 0  -0.006080000195652246 0.02923800051212311 0  -0.006537000183016062 0.03021200001239777 0  -0.007038999814540148 0.0293589998036623 0  -0.008829999715089798 0.01959500089287758 0  -0.006453999783843756 0.0189059991389513 0  -0.007395999971777201 0.01879199966788292 0  -0.006666999775916338 0.01805599965155125 0  -0.006761999800801277 0.01721500046551228 0  -0.005820000078529119 0.01743000000715256 0  0.0419050008058548 0.08342699706554413 0  0.04272599890828133 0.08281999826431274 0  0.04240600019693375 0.08399300277233124 0  0.04140999913215637 0.08422800153493881 0  0.01496599987149239 0.0575999990105629 0  0.01596399955451488 0.0573589988052845 0  0.01555399969220161 0.05829999968409538 0  0.02734700031578541 0.04101600125432014 0  0.02774599939584732 0.03992399945855141 0  0.02824600040912628 0.04056400060653687 0  0.02961800061166286 0.04479499906301498 0  0.03046200051903725 0.04400600120425224 0  0.0308229997754097 0.04468299821019173 0  0.0295180007815361 0.04820000007748604 0  0.02862099930644035 0.04841199889779091 0  0.0290910005569458 0.04742300137877464 0  0.02863599918782711 0.04668699949979782 0  0.02960100024938583 0.04643100127577782 0  0.02815200015902519 0.04766499996185303 0  0.02769099920988083 0.04864199832081795 0  0.02765499986708164 0.04695999994874001 0  0.02709800004959106 0.04628799855709076 0  0.02666700072586536 0.04722100123763084 0  0.02609200030565262 0.0465410016477108 0  0.03918299823999405 0.08552200347185135 0  0.03817500174045563 0.08562000095844269 0  0.03884899988770485 0.08497100323438644 0  0.03786699846386909 0.08504399657249451 0  0.006298999767750502 0.02332600019872189 0  0.00698699988424778 0.0237639993429184 0  0.006333000026643276 0.02441699989140034 0  0.007079000119119883 0.02474300004541874 0  0.02567099966108799 0.0474729984998703 0  0.02184999920427799 0.05006999894976616 0  0.02143700048327446 0.05100800096988678 0  0.02084599994122982 0.05030800029635429 0  0.02243199944496155 0.05077100172638893 0  0.02818199992179871 0.04938599839806557 0  0.01653300039470196 0.03396200016140938 0  0.0157030001282692 0.03388899937272072 0  0.01606200076639652 0.03295699879527092 0  0.01160600036382675 0.03963899984955788 0  0.01074900012463331 0.03969199955463409 0  0.0111480001360178 0.03876300156116486 0  0.01029099989682436 0.03881600126624107 0  0.009891999885439873 0.03974400088191032 0  0.009832999669015408 0.03793599829077721 0  0.01068999990820885 0.03788800165057182 0  0.01120700035244226 0.0405689999461174 0  -0.02648900076746941 0.06522899866104126 0  -0.02544599957764149 0.06580500304698944 0  -0.02642400003969669 0.06598799675703049 0  -0.02474999986588955 0.06530100107192993 0  -0.02442199923098087 0.06615400314331055 0  -0.02343099936842918 0.06649799644947052 0  -0.02393499948084354 0.06708499789237976 0  -0.02283100038766861 0.06594599783420563 0  -0.02245800010859966 0.06682399660348892 0  -0.02300000004470348 0.06740099936723709 0  -0.02659500017762184 0.06354500353336334 0  -0.01834500022232533 0.07873699814081192 0  -0.01928200013935566 0.07846000045537949 0  -0.01864100061357021 0.08613099902868271 0  -0.01948400028049946 0.08594200015068054 0  -0.01886600069701672 0.08543399721384048 0  -0.01970599964261055 0.08524899929761887 0  -0.01909600012004375 0.08472900092601776 0  -0.01815900020301342 0.08828700333833694 0  -0.01736800000071526 0.08847399801015854 0  -0.01727399975061417 0.08912400156259537 0  -0.01378499995917082 0.08209899812936783 0  -0.01102999970316887 0.07736700028181076 0  -0.01008599996566772 0.07765399664640427 0  -0.01061899960041046 0.07820600271224976 0  -0.01025599986314774 0.07901699841022491 0  -0.009704000316560268 0.07847700268030167 0  -0.01480900030583143 0.07469899952411652 0  -0.01527099963277578 0.07379099726676941 0  -0.01431600004434586 0.07409700006246567 0  -0.01336100045591593 0.07440199702978134 0  -0.0138119999319315 0.07349500060081482 0  -0.01772899925708771 0.076774001121521 0  -0.01723399944603443 0.07618699967861176 0  -0.01819399930536747 0.07588600367307663 0  -0.01915499940514565 0.07558599859476089 0  -0.02356999926269054 0.06797699630260468 0  -0.02418000064790249 0.07008299976587296 0  -0.02379599958658218 0.07096400111913681 0  -0.02211200073361397 0.02359299920499325 0  -0.02236000075936317 0.02410000003874302 0  -0.02252300083637238 0.02458699978888035 0  -0.02269900031387806 0.025110999122262 0  -0.02188199944794178 0.02531100064516068 0  -0.01934799924492836 0.0236629992723465 0  -0.01851099915802479 0.02381199970841408 0  -0.02019000053405762 0.0234839990735054 0  -0.0216049998998642 0.0225600004196167 0  -0.01752300001680851 0.01825699955224991 0  -0.01715400069952011 0.01902100071310997 0  -0.01820999942719936 0.01862999983131886 0  -0.01681900024414062 0.01787400059401989 0  -0.01810500025749207 0.02299400046467781 0  -0.01645899
[...]
<PointData  Scalars="pressure"> 
<DataArray  type="Float64"  Name="pressure"  format="ascii">7.8339340711097646e-03  7.8668306573170879e-03  7.8856774210137714e-03  7.9351076259106482e-03  7.8414713846689070e-03  7.8469162553882962e-03  7.8773855708157182e-03  7.9137944488893060e-03  7.9097632809923945e-03  7.8733142267917878e-03  8.2627875323985633e-03  8.2262739263120159e-03  8.1470790823954566e-03  8.1152718162909188e-03  1.0653104674001341e-02  1.0435809237609792e-02  1.0687790973104376e-02  1.0667388285017430e-02  1.1117683778781539e-02  1.1040619007420694e-02  1.1279196348597260e-02  8.0509074570711044e-03  8.2938970016652579e-03  8.1345673887599935e-03  9.4280983253284788e-03  9.2553217084433669e-03  9.3919462083361556e-03  9.2899523867933809e-03  8.0051044004141262e-03  7.9783669251857325e-03  8.0063955232625630e-03  8.0337398040533550e-03  8.0429322459045390e-03  8.0298799514495287e-03  7.9922221490015578e-03  8.0032058471045196e-03  8.0460053843048641e-03  7.9733834299018022e-03  8.0681400224978973e-03  8.0298625850633056e-03  7.9849643644402651e-03  7.9438032543005556e-03  7.9023402360274952e-03  7.8730748913025256e-03  7.8318962223681704e-03  7.8479785469259961e-03  7.8664694430890560e-03  7.8629566341041138e-03  7.9069022231646382e-03  3.1408498152756710e-03  9.8944368767484372e-04  2.6908894228302002e-03  1.1464298078861080e-02  1.1560092558520705e-02  1.2699149235071313e-02  1.1846142140664161e-02  1.0992227592039522e-02  1.2501187390540486e-02  1.1275845075709664e-02  1.0280696134231739e-02  6.2323790580981059e-03  6.1323695284698290e-03  6.1234722981933169e-03  6.0550116058911288e-03  8.2998803036410697e-03  8.5074508767022626e-03  7.8930036193345515e-03  8.0024421022902026e-03  6.9864521164392651e-03  6.7575892120743915e-03  6.8760844634796949e-03  6.9519689493307175e-03  6.7800157207101377e-03  6.7860694588190449e-03  7.1366962693177206e-03  7.1236725752064703e-03  7.3145386088878835e-03  7.2701349856236792e-03  7.2159314791420265e-03  7.4190531337012698e-03  7.3210091203668847e-03  7.4979270436267929e-03  7.5168204915910660e-03  1.3727435294004896e-03  1.0111252027364998e-03  1.6739751370020033e-03  1.0095127096180988e-03  1.3641237291943053e-03  1.3652446333486026e-03  8.3203411447532495e-03  8.4020541811654983e-03  8.1974166276498079e-03  8.1036134073428842e-03  7.8991333813338300e-03  7.8518444603232901e-03  7.8834482803156469e-03  7.8942707260100074e-03  7.9005792492168152e-03  7.9221048150006582e-03  8.0250955890097710e-03  7.9521778169740574e-03  8.0185293053627454e-03  8.0227247680404474e-03  8.1065971501377045e-03  7.9496178881298535e-03  7.9610817624492583e-03  7.8683682971908177e-03  7.8921621849417818e-03  7.9197196200996977e-03  8.2117971554739894e-03  9.0572710600617945e-03  8.8555848290840736e-03  8.9770373810216467e-03  9.8334694552505743e-03  9.8839071382735323e-03  9.6579739515650406e-03  8.3315030901555120e-03  8.6399618917240954e-03  8.4929270906363569e-03  8.5476806493841821e-03  8.5174810983126240e-03  8.6669504882352644e-03  6.5045075519956936e-03  6.3038876077412855e-03  6.5500638671824813e-03  7.3077259860863377e-03  6.7222233870535275e-03  7.6193695511247821e-03  6.8600175988464962e-03  2.2787693969901060e-02  2.2696212330748873e-02  2.3083713917579511e-02  2.4197239183063129e-02  2.4311336154662799e-02  2.4495684074930982e-02  2.4201283774736695e-02  2.3884071515293218e-02  2.4159724913248283e-02  2.4061138936772926e-02  2.4305480543553016e-02  2.3829381739285591e-02  2.3456933409977031e-02  2.3706220717801360e-02  2.3516682019669222e-02  2.3224272374104567e-02  2.3014232615829647e-02  9.9716461007726305e-03  1.0365885223919676e-02  9.3726309456549986e-03  9.7031460192776101e-03  1.1560866804155974e-02  1.1744519190393137e-02  1.1634561830454292e-02  1.1905967492433368e-02  2.2622514803858653e-02  1.8427036298972990e-02  1.7395219584376880e-02  1.7320876599927790e-02  1.8533903206206424e-02  2.3470646041595159e-02  1.6101598530352194e-02  1.5819747291802466e-02  1.5721280742435048e-02  1.5063086372402001e-02  1.4731682331935475e-02  1.4963519691823145e-02  1.4632137960463944e-02  1.4400015703027919e-02  1.4518437697061796e-02  1.4826625546935895e-02  1.4788485022242677e-02  1.1229035900681979e-02  1.1012258843313151e-02  1.0969797907170000e-02  1.0621942441545748e-02  1.0573782339331272e-02  1.0400419170830823e-02  1.0466383076140947e-02  1.0323869183076139e-02  1.0225345941946844e-02  1.0291390266634504e-02  1.1185815793231069e-02  9.3601785563977146e-03  9.5109950130595235e-03  8.7155943639319784e-03  8.8051800589002763e-03  8.8993902838677055e-03  9.0000716129006505e-03  9.0772350809694459e-03  8.0461934873245679e-03  7.9596140744540231e-03  7.7693915029063100e-03  8.3841210593630158e-03  6.7151546198306097e-03  6.2951944949941156e-03  6.6717723640283208e-03  6.6793044745692637e-03  6.2801629162313188e-03  8.0166272166612897e-03  8.1073773090493042e-03  7.7567750431589665e-03  7.3656828532038879e-03  7.4660836689983481e-03  9.0976942167745045e-03  8.9256173261818509e-03  9.1425509013463770e-03  9.3466211491103034e-03  1.0360992342935270e-02  1.0308821123505736e-02  1.0239842230271769e-02  8.0925767720564853e-03  8.1325884466869249e-03  8.1584334032434522e-03  8.1812298122382453e-03  8.0732919223302450e-03  7.9543363463469019e-03  7.9587895927054082e-03  7.9431859787173417e-03  8.0495574848088065e-03  7.7993168947194770e-03  7.7824095687030331e-03  7.7950236602782261e-03  7.8054851580697249e-03  7.9105165726000709e-03  7.9146776881349641e-03  7.9736306491701020e-03  7.9640685003488053e-03  8.9256932521986909e-03  9.1367295242318139e-03  9.0216949192068567e-03  8.1043985915649590e-03  8.3238724546836826e-03  8.4621856581727148e-03  8.3370039584968313e-03  8.4576281407640549e-03  8.3222421814849075e-03  8.6218679621018514e-03  8.7986901715718553e-03  8.6386558577112148e-03  7.6905758211878658e-03  7.0321537434717991e-03  8.6486084854670835e-03  7.3019476221801907e-03  7.9006923929902644e-03  8.2719052133834355e-03  6.4714668155737044e-03  6.9314137412113440e-03  6.1882263525618892e-03  1.5893157313527110e-03  1.4569965695385403e-02  1.5437724471598111e-02  1.3987950883862243e-02  1.3255011483745159e-02  1.4207613177683452e-02  1.3609397153763112e-02  9.9169344381865969e-03  9.1150284570892491e-03  9.3115339743385303e-03  8.5566828923064053e-03  1.0736096243006671e-02  1.2258348633905972e-02  1.2117035924031655e-02  1.2480643426803637e-02  1.2281992725069212e-02  1.1507134684702741e-02  1.1007768823418720e-02  1.0269124318284101e-02  9.9226159472161502e-03  9.1375779000040236e-03  9.1301572757745524e-03  1.0212164822020413e-02  9.4093577180070515e-03  1.0729485189225068e-02  6.4746494149082968e-03  6.4804111444013678e-03  6.6243554533171904e-03  6.6142630596890718e-03  6.2260389728015942e-03  6.1427111479844757e-03  6.1276999309175188e-03  6.2403205719808348e-03  6.0249595800693379e-03  7.8676562225828139e-03  7.0898172211740322e-03  7.3186795740869739e-03  7.4858788233488557e-03  6.9057143701465127e-03  7.1570314603673583e-03  6.4770213575469030e-03  6.5640826439428120e-03  6.6409666149259642e-03  6.5224406607000338e-03  6.5976214613734279e-03  6.6449943855975257e-03  6.4461127242503458e-03  7.3314442282697879e-03  7.3990639072490788e-03  7.5461391273370345e-03  7.6928231896336886e-03  6.9397061721284074e-03  6.6301192982520770e-03  6.4851624353276698e-03  6.8187590590434513e-03  7.0159113510795392e-03  6.8811871777288772e-03  6.9263442051988615e-03  6.7401849002222854e-03  6.9598749805969470e-03  7.1389806210795381e-03  6.9596513218386597e-03  7.3252821179194951e-03  6.9522025994332324e-03  6.7919215334616197e-03  7.1164742032825473e-03  6.8748315536934067e-03  7.3585985869554539e-03  7.4668052462474625e-03  7.1326912724071663e-03  6.4135298139538933e-03  6.3582348562026200e-03  6.5556425633798831e-03  6.4972876363752147e-03  5.8486240779599729e-03  5.9567225578194506e-03  5.9553615385603562e-03  5.8210686333756180e-03  5.6597394328325914e-03  6.0587846174140073e-03  6.4760638082043643e-03  4.8649416469425831e-03  5.3383462133685042e-03  4.0723038095416657e-03  4.1712245818102877e-03  3.5747948119618398e-03  4.6060263527858761e-03  4.5119041106362005e-03  9.7501288714959729e-03  9.1677168961946127e-03  9.6236579012070819e-03  9.4808306806273765e-03  1.0067016465261173e-02  9.8001259863922177e-03  9.1177945801126283e-03  9.1328520325548567e-03  7.5252608227765593e-03  7.3449560064796898e-03  7.6333598692698646e-03  6.7042849436899261e-03  6.8997725143407941e-03  6.8034927729160016e-03  8.2646336265193620e-04  9.3570904917517463e-04  5.6207297855144674e-04  4.5551291619743643e-04  3.1140538296799570e-04  5.0283454182612278e-04  1.8530856560245103e-03  1.8869847466249545e-03  2.3901337754348860e-03  1.3838818616593897e-03  2.3848868100620978e-03  5.9059687662439790e-03  6.1429366945805535e-03  5.5087942784635283e-03  8.5855301510884136e-03  8.4662911881398621e-03  9.5213353809089751e-03  1.6205027433280436e-02  1.5108208935971829e-02  1.6286605998567034e-02  1.5170892419698590e-02  1.6051859245183358e-02  1.5045622750212460e-02  1.5036914435689837e-02  9.2821217818139685e-03  9.3921884977799207e-03  9.5490049018084611e-03  2.6634887300190811e-03  2.6164944548338312e-03  2.8778420485313589e-03  2.6157745683850278e-03  2.8104595142058085e-03  2.6872153750572792e-03  2.5866145878775627e-03  2.7561351993851098e-03  1.2875787075420282e-03  2.4358001293943487e-03  1.7939994775267604e-03  1.8182108603223158e-03  1.2409845833436364e-02  1.2194773807372349e-02  1.2931175230278983e-02  1.2717005774393303e-02  1.1917567591371251e-02  1.2077575090684349e-02  1.2902509755893212e-02  1.3798215312534307e-02  1.3074400993953517e-02  1.2151187682434700e-02  1.2377442777947268e-02  1.3736165695688182e-02  1.0986258078106577e-02  3.7521156252520158e-03  2.9260404481303375e-03  3.2758095640705851e-03  6.4103830860800723e-03  6.1908667191573289e-03  5.9555403256374498e-03  1.5107378805664668e-04  1.3278579295554482e-05  1.7202820797534990e-04  2.9668368704922551e-05  1.7608898178698637e-04  1.9566223962576203e-04  1.2280022030349697e-05  6.0890910886826979e-05  7.6640715449716483e-04  1.3278883936948213e-03  2.1669526691008960e-03  2.9339430391777058e-03  2.4641027378381939e-03  1.7186109033115082e-03  2.4432659891091297e-03  1.3418290837305469e-03  1.7903744479717933e-03  9.8549295864185267e-04  9.5371762725396684e-04  7.4264225255582603e-04  1.8128813737965620e-03  2.8940921048498372e-03  2.2819320955100291e-03  2.9281222949961213e-03  7.8327520646744222e-03  7.8450102310508481e-03  7.8630430218750574e-03  7.8072870645509865e-03  7.8975111209218518e-03  7.9396898060726563e-03  7.9393355124522565e-03  8.0482003476403143e-03  8.0134531295654662e-03  7.9814549172442656e-03  8.0354627363642787e-03  8.0686239616350151e-03  8.7518546481871566e-03  8.6640734710178996e-03  8.6016410214440741e-03  8.6688360999657398e-03  8.9027449643232677e-03  8.8554867028336898e-03  9.0594926557620442e-03  9.0308456911315817e-03  9.2220925581802220e-03  9.2028996664382731e-03  1.0077330938588832e-02  9.5422705589357816e-03  9.5602537328351982e-03  9.3497062484536562e-03  9.5716856140352288e-03  9.7746152692720460e-03  8.3511180975309671e-03  8.4683439974093024e-03  1.1113497507025718e-02  1.1401258715479000e-02  1.0558357875324123e-02  1.0660125554032458e-02  1.1052304970445839e-02  1.0245598460150669e-02  1.0625020879783634e-02  1.0704308747885923e-02  9.5800621089292097e-03  9.3207798629611691e-03  9.5183823103330012e-03  1.8665849659041400e-02  1.7621510897979333e-02  1.7763420973953729e-02  8.8389610898395934e-04  1.9867817640791329e-02  1.9675420421570920e-02  2.0594223739272922e-02  5.6083608047808198e-03  4.8865846120436582e-03  4.3283988627953020e-03  5.4787611403757592e-03  5.7647056298006250e-03  2.4239837426368295e-02  2.4851274328481658e-02  2.4386826041061196e-02  2.4624467198831310e-02  2.4800250649110202e-02  2.4024324814617089e-02  2.4239738518235115e-02  2.0117240696176781e-02  2.1069631439677321e-02  2.0521886360146936e-02  2.1873212814561963e-02  2.1481213399868457e-02  2.1469995377094906e-02  2.2837529151219133e-02  2.3436586182954414e-02  2.3323220015249974e-02  2.3383054416027248e-02  2.2961576479040579e-02  2.2656829125362443e-02  2.3051930038363738e-02  2.1059163649212245e-02  2.1691389950457843e-02  2.0749553698904823e-02  1.9731164827514167e-02  2.0425373462799108e-02  1.9396018701560661e-02  2.2769334153988460e-02  2.3022292193435642e-02  2.2807543022648081e-02  2.1457619233945437e-02  2.2632735541339485e-02  6.8978552100243413e-03  6.7827291921856636e-03  6.3923700899846721e-03  1.0745916660505683e-02  1.0706549782467340e-02  1.1758749944580441e-02  9.5944718810874637e-03  2.8634513738382650e-03  2.6822266442126487e-03  2.6229006233732415e-03  2.9703316611746785e-03  3.1107229099146590e-03  2.9684925796713956e-03  5.6482569365076613e-03  6.3394548497247311e-03  5.7754268884571310e-03  5.0268008848234763e-03  5.5392489855183580e-03  4.0651688264483942e-03  4.1299677447155939e-03  3.7023439212236580e-03  5.1241299926407290e-03  4.5570037964132474e-03  4.3409635409435441e-03  4.3302864213812233e-03  3.9991286427143082e-03  4.7115603154295176e-03  4.7553903796591869e-03  4.4218207920214006e-03  3.5971624945496353e-03  3.6743166719382103e-03  3.9418611797094561e-03  9.0116325325343277e-03  8.8540267062713444e-03  8.6842129422759068e-03  6.7242385086776248e-03  7.1784997404067442e-03  2.3196855652202055e-02  2.4435549895911558e-02  2.4569860258830623e-02  2.4640001272441325e-02  2.4208565355077198e-02  2.4585717283040494e-02  2.4689909059657400e-02  2.4476462287673254e-02  2.4037279662293281e-02  2.4170161980015238e-02  2.4397026576204572e-02  2.3364843706298818e-02  2.3676207307070801e-02  2.3360661919684316e-02  2.3664954494291245e-02  2.2383683960503935e-02  2.1910760547400272e-02  1.8734877547530653e-02  1.7949332845098878e-02  1.7796982437245323e-02  2.3020674878575852e-02  2.3325203070246808e-02  2.3373935325864782e-02  2.3897207115151184e-02  8.8015744073410319e-03  1.2073481167551421e-02  1.2055218461146466e-02  1.2181934732406523e-02  1.2688430960766939e-02  1.2552954412377238e-02  1.2539488045868401e-02  1.2365198179026038e-02  1.1070011001032009e-02  1.1111360172717286e-02  1.0921573656006746e-02  1.0873079796524132e-02  1.1018290303565666e-02  1.1212160789483221e-02  1.0556427413463921e-02  1.0591341035130989e-02  1.0379923487043417e-02  1.0763263108457386e-02  1.0408667988161778e-02  1.0613034118039127e-02  1.0190614057877790e-02  1.0162674590893711e-02  1.7467562900366378e-02  1.7494055090999994e-02  1.6354057105964388e-02  2.0590100891739547e-02  1.9595379056110539e-02  2.0480223538914412e-02  2.0326013633786909e-02  2.1269849505291913e-02  1.9498431853452666e-02  2.2928396872114461e-02  2.2222530935281509e-02  2.2273837903745621e-02  1.2499616322101306e-02  1.1825632329305419e-02  1.2559813038945874e-02  1.7211549623907092e-02  1.7592981957886514e-02  1.8365584543043764e-02  1.5530706853778484e-02  1.5365423094065980e-02  1.5655947883413103e-02  1.5910785462239792e-02  1.5762081810048255e-02  1.6182647059005802e-02  1.5657251263381244e-02  1.5570553344309849e-02  1.5907836439748392e-02  2.0036164283594282e-02  2.0485984813569915e-02  2.0056932852365397e-02  1.9612788483504010e-02  1.9610037311177778e-02  1.9254769017600062e-02  1.8849473611100655e-02  1.8772605076834842e-02  1.8282747714923851e-02  1.7878226548992255e-02  1.7725578459032887e-02  1.7435780663076841e-02  1.7394195850448820e-02  1.7874484989033903e-02  1.7935255039979139e-02  1.7466048535380162e-02  1.3321931256077727e-02  1.3570480928562730e-02  1.3242030438385597e-02  1.3477846752076444e-02  1.5201730040081483e-02  1.5765030008999391e-02  1.5190131985418999e-02  1.4688203400026731e-02  1.5217689366318850e-02  1.5349301806540247e-02  1.5280979783187904e-02  1.5397199310233600e-02  1.5668063276215758e-02  1.5724503686938743e-02  1.4308940912182145e-02  1.4787511779451531e-02  1.4738442916053144e-02  1.5217226226510613e-02  1.5183951972841805e-02  1.5138550052582505e-02  1.5500534995078509e-02  1.4808329180897736e-02  1.4444918294131696e-02  9.5439078977945478e-03  9.3994359920923469e-03  9.2544136273588276e-03  2.0484733201293626e-03  2.1134047838386118e-03  1.7619988197526844e-03  1.0184810958102718e-02  1.0246401613174642e-02  1.0563770186424133e-02  1.0569133314150152e-02  9.1827733844634125e-03  9.1200509463904705e-03  9.0190310885976815e-03  9.2209308125335947e-03  9.3302312229393090e-03  7.9283471699179986e-03  8.2555187118360986e-03  1.0093272787481931e-02  9.7829739237498062e-03  9.9305732610141181e-03  9.2202893315897136e-03  9.4288386728167851e-03  9.2765101834238195e-03  9.4782356760963974e-03  9.3180105030784069e-03  9.4750927175561890e-03  8.3021651321146181e-03  8.8009042707159670e-03  8.5340835027469357e-03  8.4088779549834868e-03  8.9509100953931997e-03  8.6036203713890438e-03  9.1613847983229406e-03  9.3482399447306491e-03  8.8829322959532980e-03  9.0403615076044101e-03  8.9324546988832250e-03  9.0919663672607842e-03  8.1921133782626929e-03  8.2559766786816109e-03  6.4434042968149101e-03  6.7309895955917926e-03  6.4393387053883235e-03  6.1344448645358450e-03  7.0393560300304418e-03  6.6857414127507817e-03  7.0529554386711806e-03  5.1194309213560300e-03  5.4885762328065061e-03  5.0239377726027630e-03  5.9398300208787173e-03  5.5457293740350903e-03  6.6898380642484833e-03  6.9905593683304013e-03  6.9538989170107451e-03  7.2404709613036813e-03  7.8633125193446132e-03  5.8845909569137681e-03  5.8456286780271998e-03  8.5511156785986857e-03  8.4738350859914456e-03  7.8613362446886045e-03  8.2182270129178038e-03  7.9723302417707715e-03  1.8139975935326548e-03  2.1934144582109842e-03  8.3478825924178674e-03  8.5497749511801342e-03  8.1112069345858403e-03  9.3845027698569762e-03  9.2638162635930946e-03  9.1322718167365889e-03  9.9901489041845423e-03  9.7754083323940144e-03  9.8666915966281118e-03  8.8824369456358340e-03  9.2097028846751181e-03  8.9863075864421750e-03  9.0665075266186390e-03  1.0785401652486207e-02  1.0749714396221436e-02  1.0551310014505391e-02  1.0609419798756594e-02  1.0199457073787381e-02  8.1029670181332406e-03  8.2051459069155779e-03  8.1487625455634004e-03  8.0869380495070375e-03  8.2384578863174632e-03  7.8104461279845591e-03  7.8104617345700639e-03  7.7999511056377410e-03  7.7929773283598918e-03  7.8311935807708725e-03  7.8067460339225452e-03  7.9242766221519385e-03  8.3562745372601777e-03  8.4164354486107318e-03  8.4418664438447762e-03  8.3298618848717532e-03  8.2534877923702218e-03  8.1945961978643657e-03  8.2322552724792362e-03  8.3333999408521618e-03  8.3888807639825105e-03  8.4321160123761868e-03  8.3713804446027655e-03  8.4653464772491607e-03  8.4013651756380345e-03  8.2908263210969921e-03  8.5296991180231537e-03  8.4973667283205732e-03  8.5316086140791586e-03  8.4304496630831713e-03  8.4619190343446990e-03  8.3801169742307481e-03  8.3056362740117802e-03  8.0822733066815543e-03  8.1089184173011031e-03  8.0326559005673513e-03  9.1238004730072320e-03  9.1353715028384651e-03  9.0078682534260324e-03  8.9876691871747724e-03  8.9079596711546596e-03  9.1126147201812460e-03  8.6686855997425150e-03  8.8103390066584346e-03  8.7275486900174355e-03  8.5364545440272700e-03  8.6001829470457661e-03  8.6147084628902457e-03  8.6550196738725271e-03  8.8012600820944007e-03  8.9718944665899605e-03  8.8473182109733255e-03  8.8845299729669609e-03  8.7883488422562349e-03  8.7009873023753508e-03  8.8543812025931243e-03  8.1870119597132734e-03  8.1136517169728313e-03  8.2081290682636497e-03  8.3122184542486141e-03  8.2316644673979499e-03  8.3586220597455605e-03  8.3975285866230171e-03  8.2728922232902166e-03  8.5183715662852585e-03  8.4617391612559021e-03  8.5920057275574481e-03  8.3261205985331356e-03  8.2361783677661234e-03  8.7048087776735693e-03  8.6709958066313909e-03  8.5506766835122816e-03  8.8229627690169978e-03  8.2042897524910972e-03  8.2125340137191166e-03  8.2066321182107382e-03  8.6129139790335416e-03  8.6139763766501145e-03  8.7826201125739169e-03  6.2553995450177029e-03  6.173314094