<?xml version="1.0"?>
<VTKFile type="UnstructuredGrid"  version="0.1"  >
<UnstructuredGrid>
<Piece  NumberOfPoints="6340" NumberOfCells="12376">
<Points>
<DataArray  type="Float64"  NumberOfComponents="3"  format="ascii">-0.01941500045359135 0.02072699926793575 0  -0.02006899937987328 0.02137999981641769 0  -0.0203000009059906 0.02040000073611736 0  -0.02082699909806252 0.02113099955022335 0  -0.01964900083839893 0.01980799995362759 0  -0.01924999989569187 0.02160199917852879 0  -0.01972400024533272 0.02233400009572506 0  -0.01926299929618835 0.0231500007212162 0  -0.02016899921000004 0.02306799963116646 0  -0.01879600062966347 0.02232600003480911 0  -0.0088919997215271 0.01759300008416176 0  -0.009506000205874443 0.0185100007802248 0  -0.009840000420808792 0.01757200062274933 0  -0.01046099979430437 0.01853000000119209 0  -0.02508299984037876 0.07447700202465057 0  -0.02599699981510639 0.07487399876117706 0  -0.02616200037300587 0.07409399747848511 0  -0.02557500079274178 0.0679590031504631 0  -0.02618899941444397 0.06866200268268585 0  -0.02637900039553642 0.0677649974822998 0  -0.02710000053048134 0.06818000227212906 0  -0.01260800007730722 0.08632399886846542 0  -0.01349399983882904 0.08617399632930756 0  -0.01291599962860346 0.08550900220870972 0  -0.01936299912631512 0.08050499856472015 0  -0.01840700022876263 0.0806799978017807 0  -0.01892700046300888 0.08137000352144241 0  -0.01885000057518482 0.07980900257825851 0  -0.02180000022053719 0.02447599917650223 0  -0.02094700001180172 0.02460700087249279 0  -0.02131200022995472 0.02535999938845634 0  -0.02163599990308285 0.02612300030887127 0  -0.02218100056052208 0.02524000033736229 0  -0.02045099996030331 0.02549500018358231 0  -0.0200789999216795 0.02469800040125847 0  -0.01919900067150593 0.02477799914777279 0  -0.01958400011062622 0.02557500079274178 0  -0.02143100090324879 0.02370299957692623 0  -0.02236299961805344 0.02362100034952164 0  -0.02180000022053719 0.02247999981045723 0  -0.02132700011134148 0.02182500064373016 0  -0.02104499936103821 0.02289899997413158 0  -0.02055500075221062 0.02214699983596802 0  -0.01624299958348274 0.02200499922037125 0  -0.01674499921500683 0.02112800069153309 0  -0.01580199971795082 0.02110200002789497 0  -0.01711699925363064 0.02212600037455559 0  -0.01799999922513962 0.02213400043547153 0  -0.0175199992954731 0.0230139996856451 0  0.04236099869012833 0.07933799922466278 0  0.04199599847197533 0.07851900160312653 0  0.04330499842762947 0.07868500053882599 0  0.0454769991338253 0.08951500058174133 0  0.04627899825572968 0.08979800343513489 0  0.04517500102519989 0.09030500054359436 0  0.02740800008177757 0.09847299754619598 0  0.02756999991834164 0.09765499830245972 0  0.02849500067532063 0.09797299653291702 0  0.02641000039875507 0.09893199801445007 0  0.02655999921262264 0.09794300049543381 0  -0.006606999784708023 0.09488900005817413 0  -0.005669999867677689 0.09505199640989304 0  -0.006252999883145094 0.0957150012254715 0  -0.005309999920427799 0.09588100016117096 0  -0.01813999935984612 0.09439899772405624 0  -0.01849799975752831 0.09369400143623352 0  -0.01744800060987473 0.0939439982175827 0  -0.01908599957823753 0.09444300085306168 0  -0.01438399963080883 0.100442998111248 0  -0.01461299974471331 0.1012270003557205 0  -0.01520099956542253 0.1004789993166924 0  -0.01058300025761127 0.09349899739027023 0  -0.009672000072896481 0.093640998005867 0  -0.0102530000731349 0.09430799633264542 0  -0.01149499975144863 0.09335099905729294 0  -0.01091300044208765 0.09268499910831451 0  -0.01182600017637014 0.09253700077533722 0  -0.01415100041776896 0.0951559990644455 0  -0.01469200011342764 0.09579700231552124 0  -0.0150969997048378 0.09499000012874603 0  -0.01299499999731779 0.09386000037193298 0  -0.01392299961298704 0.09371300041675568 0  -0.01332900021225214 0.09305500239133835 0  0.01234200038015842 0.09159799665212631 0  0.01340099982917309 0.09150899946689606 0  0.01280099991708994 0.09228699654340744 0  0.007872000336647034 0.07813499867916107 0  0.008338999934494495 0.07732599973678589 0  0.00892999954521656 0.07804600149393082 0  -0.00863999966531992 0.01666999980807304 0  -0.007861999794840813 0.01682600006461143 0  -0.009461999870836735 0.01661200076341629 0  -0.01031900011003017 0.01655199937522411 0  -0.01374999992549419 0.016720000654459 0  -0.01395399961620569 0.01783400028944016 0  -0.01454900018870831 0.01695599965751171 0  -0.01319199986755848 0.01760400086641312 0  -0.01318799983710051 0.01865500025451183 0  -0.01241800002753735 0.01773400045931339 0  -0.01266799960285425 0.02161099947988987 0  -0.01314700022339821 0.02066200040280819 0  -0.0122680002823472 0.02065600082278252 0  -0.01185499969869852 0.01975099928677082 0  -0.01131400000303984 0.02057800069451332 0  -0.01274900045245886 0.01966699957847595 0  -0.01355300005525351 0.02167100086808205 0  -0.01491199992597103 0.02095199935138226 0  -0.01532999984920025 0.021934999153018 0  -0.0144410002976656 0.02180200070142746 0  -0.009952000342309475 0.01946200057864189 0  -0.01136600039899349 0.03070599958300591 0  -0.01186500024050474 0.02984699979424477 0  -0.01093900017440319 0.02974499948322773 0  -0.006264999974519014 0.02910999953746796 0  -0.006703999824821949 0.03010299988090992 0  -0.007203999906778336 0.02925500087440014 0  -0.009038999676704407 0.01945699937641621 0  -0.006705999840050936 0.01869099959731102 0  -0.00763599993661046 0.01860800012946129 0  -0.006922000087797642 0.01784100010991096 0  -0.007021000143140554 0.01699399948120117 0  -0.006089999806135893 0.01717999950051308 0  0.04740900173783302 0.08590800315141678 0  0.04818300157785416 0.0854249969124794 0  0.04808900132775307 0.08646299690008163 0  0.04703599959611893 0.08664599806070328 0  0.01528200041502714 0.05803899839520454 0  0.01629400067031384 0.0578560009598732 0  0.01586900092661381 0.05878100171685219 0  0.02797999978065491 0.04202299937605858 0  0.02839300036430359 0.04094399884343147 0  0.02889999933540821 0.04162000119686127 0  0.03034799918532372 0.04599399864673615 0  0.03122000023722649 0.04525100067257881 0  0.03160599991679192 0.04597000032663345 0  0.03029200062155724 0.04947400093078613 0  0.02935300022363663 0.04961400106549263 0  0.02983099967241287 0.0486380010843277 0  0.02934600040316582 0.04785399883985519 0  0.03035099990665913 0.04766299948096275 0  0.02885299921035767 0.04881599918007851 0  0.02838299982249737 0.04977900162339211 0  0.02832500077784061 0.04805999994277954 0  0.02773699909448624 0.04733999818563461 0  0.02729699946939945 0.0482570007443428 0  0.02669399976730347 0.04753300175070763 0  0.04483500123023987 0.08815299719572067 0  0.04373700171709061 0.08824700117111206 0  0.04434999823570251 0.08748099952936172 0  0.04327499866485596 0.0875450000166893 0  0.006393000017851591 0.02289500087499619 0  0.007127000018954277 0.02335200086236 0  0.006428999826312065 0.02399599924683571 0  0.00722600007429719 0.02434300072491169 0  0.0262640006840229 0.04845000058412552 0  0.02233099937438965 0.05084199830889702 0  0.02190399914979935 0.05176499858498573 0  0.02130500040948391 0.05102400109171867 0  0.02292600087821484 0.05158599838614464 0  0.02890899963676929 0.05058100074529648 0  0.0171119999140501 0.03413999825716019 0  0.01626200042665005 0.03401099890470505 0  0.01663599908351898 0.03308999910950661 0  0.01199799962341785 0.03958699852228165 0  0.01110200025141239 0.03959200158715248 0  0.01152100041508675 0.0386740006506443 0  0.01062399987131357 0.03867999836802483 0  0.01020499970763922 0.03959599882364273 0  0.01014399994164705 0.0377659983932972 0  0.01104300003498793 0.03776299953460693 0  0.01157900039106607 0.04050499945878983 0  -0.02698799967765808 0.06904000043869019 0  -0.0259189996868372 0.06949499994516373 0  -0.02688599936664104 0.06982599943876266 0  -0.02525000087916851 0.0688679963350296 0  -0.02488099969923496 0.06971599906682968 0  -0.02387499995529652 0.06993599981069565 0  -0.0243500005453825 0.0706230029463768 0  -0.02330400049686432 0.06927099823951721 0  -0.02288799919188023 0.07013899832963943 0  -0.02340099960565567 0.07082100212574005 0  -0.0271770004183054 0.06729000061750412 0  -0.01849799975752831 0.08222600072622299 0  -0.01944399997591972 0.08205699920654297 0  -0.01841899938881397 0.09068299829959869 0  -0.01931600086390972 0.09057000279426575 0  -0.01873400062322617 0.08989500254392624 0  -0.01962600089609623 0.08978699892759323 0  -0.01904500089585781 0.08910299837589264 0  -0.01758299954235554 0.09318500012159348 0  -0.01670899987220764 0.09331600368022919 0  -0.01646599918603897 0.09408999979496002 0  -0.01380299963057041 0.0853549987077713 0  -0.01113799959421158 0.07965700328350067 0  -0.01018599979579449 0.07983300089836121 0  -0.0107190003618598 0.0805170014500618 0  -0.01034799963235855 0.08136100322008133 0  -0.009794999845325947 0.08068300038576126 0  -0.01495799981057644 0.07732900232076645 0  -0.0154370004311204 0.07643099874258041 0  -0.01447200030088425 0.07661700248718262 0  -0.01350599993020296 0.07680299878120422 0  -0.0139769995585084 0.07590799778699875 0  -0.01789000071585178 0.07998800277709961 0  -0.01739300042390823 0.07928100228309631 0  -0.01836000010371208 0.0790959969162941 0  -0.0193290002644062 0.07891400158405304 0  -0.02394399978220463 0.07150699943304062 0  -0.02448100037872791 0.07380200177431107 0  -0.02407200075685978 0.07467299699783325 0  -0.0226610004901886 0.02422500029206276 0  -0.02294999919831753 0.02480999939143658 0  -0.0231500007212162 0.02538600005209446 0  -0.02336600050330162 0.02600499987602234 0  -0.02247299998998642 0.02603599987924099 0  -0.01968299970030785 0.02391799911856651 0  -0.01879500038921833 0.02398700080811977 0  -0.02057499997317791 0.02381899952888489 0  -0.02207300066947937 0.02303400076925755 0  -0.01770799979567528 0.01828799955546856 0  -0.01733399927616119 0.01905000023543835 0  -0.01840999908745289 0.01868000067770481 0  -0.01698699966073036 0.0178849995136261 0  -0.01836000010371208 0.02312600053846836 0  -0.0166420005261898 
[...]
<PointData  Scalars="pressure"> 
<DataArray  type="Float64"  Name="pressure"  format="ascii">6.0526485859988037e-02  6.0659329570060747e-02  6.0564293226198933e-02  6.0680581726467710e-02  6.0439557086392454e-02  6.0609050833518502e-02  6.0724098693717185e-02  6.0760512266296099e-02  6.0811432003724235e-02  6.0642644812921115e-02  5.8357288672545617e-02  5.8579410999201158e-02  5.8478794834947272e-02  5.8706868807810002e-02  3.6689759749672146e-02  3.6482520847148370e-02  3.7259731200106228e-02  4.2516449601990913e-02  4.2098476943178455e-02  4.2639097534818017e-02  4.2469257671455589e-02  1.9799798747343111e-02  2.0564217010234826e-02  2.0398486000421920e-02  2.8476273204225626e-02  2.7714648982775682e-02  2.7513719850733621e-02  2.8715702756765007e-02  6.0911530025278236e-02  6.0905863092184480e-02  6.0916139916781964e-02  6.0905612764814758e-02  6.0911748223159236e-02  6.0915506591322652e-02  6.0890736954700923e-02  6.0866975260677289e-02  6.0907447400697833e-02  6.0891170550011274e-02  6.0897796883531495e-02  6.0830426575664509e-02  6.0771479784485403e-02  6.0847707378061236e-02  6.0767232827311356e-02  6.0277693576007201e-02  6.0217556547923136e-02  6.0055328753588690e-02  6.0422267604554963e-02  6.0534898244717784e-02  6.0590323497121498e-02  7.8708020449804877e-03  6.2744751361921702e-03  7.9295863826455548e-03  1.9443048085232256e-02  1.9287697389102694e-02  2.0979967030387944e-02  3.2684866821983821e-02  3.1471771169398942e-02  3.3586804580618045e-02  3.1717071200065658e-02  3.0391536097889346e-02  1.2669840960922012e-02  1.2142737929295534e-02  1.2209869629341622e-02  1.1712378061484549e-02  1.9010623682737589e-02  1.9456733524220927e-02  1.9004376139725648e-02  1.9201507352925477e-02  1.4441733971801480e-02  1.4061243316923421e-02  1.4765704676111303e-02  1.5590735042076784e-02  1.4967673398815627e-02  1.5017861646334099e-02  1.6196772692150974e-02  1.6149400092516045e-02  1.6777687335111334e-02  1.6829321509083835e-02  1.6806356944421032e-02  1.7413154456722191e-02  1.6830336909069286e-02  1.7401262936986215e-02  1.7403274722902998e-02  2.1426783460678743e-03  2.7031613848345574e-03  3.2965348603143530e-03  8.0110333025883197e-03  8.1647979829764482e-03  8.2025107857858388e-03  5.8306078719473318e-02  5.8235962927987231e-02  5.8381686411367192e-02  5.8488117103057465e-02  5.9112404706804074e-02  5.9237641744244549e-02  5.9285733211027959e-02  5.9062053333739109e-02  5.9181206811561034e-02  5.8934498477122545e-02  5.9623429557902015e-02  5.9504284014030809e-02  5.9356601317895830e-02  5.9126042461059132e-02  5.9209309242830910e-02  5.9259867599478828e-02  5.9763127478493730e-02  5.9863711039043983e-02  6.0120926890113544e-02  5.9948929839767920e-02  5.8811906436076505e-02  6.1837264278529813e-02  6.1547105818020462e-02  6.1595407812368524e-02  6.1126076132109387e-02  6.1561454393428208e-02  6.1341266812506338e-02  5.8712950490106851e-02  5.8406159792841014e-02  5.8427920917068769e-02  5.8240563163677164e-02  5.8187753369156506e-02  5.8184424954883698e-02  1.4329438824768531e-02  1.4105673301549094e-02  1.4593551248019756e-02  1.5007813422875917e-02  2.4293537487684095e-02  2.5714639246854638e-02  2.3815755080400822e-02  5.2169850337219575e-02  5.2132622297999566e-02  5.2291734482613011e-02  5.2897341086027380e-02  5.2901243141030112e-02  5.3135340937042502e-02  5.1379890526547574e-02  5.0957915575374720e-02  5.1759719191880785e-02  5.2013049597762498e-02  5.2412344957665342e-02  5.1281949883404128e-02  5.0351626732796834e-02  5.1461880492431208e-02  5.1455998114390361e-02  5.0752820481867973e-02  5.0722654477592950e-02  1.7788641430976561e-02  1.8424996881025561e-02  1.6979129295406251e-02  1.7434621673194903e-02  5.7849479079159119e-02  5.7669550253847041e-02  5.7752735750579459e-02  5.7546223005736613e-02  4.9882480360889429e-02  4.3715180135889105e-02  4.1940273873544917e-02  4.2327475168749192e-02  4.3340522080362813e-02  4.9975849421549340e-02  5.2626115846635221e-02  5.2824240665495993e-02  5.3005637185288675e-02  5.0191237708989804e-02  5.0260243664249138e-02  5.1081698655952100e-02  5.1192525903786396e-02  5.0334016446387700e-02  5.2103306243556989e-02  5.1937419473151052e-02  4.9292558537515081e-02  4.1909975028138542e-02  4.1463098058083882e-02  4.1279966566970014e-02  4.1789920606348292e-02  4.1004185956820781e-02  4.0500704940004517e-02  4.0013479953417162e-02  4.0909183270762289e-02  3.9974395056284105e-02  3.9533956492893471e-02  4.3173168461663337e-02  2.6551714282582094e-02  2.7252659992339667e-02  2.0976821382165185e-02  2.1380838148416053e-02  2.1526492672800875e-02  2.1913038478390285e-02  2.2087376170646700e-02  1.9424736305111406e-02  1.8968734425793183e-02  1.8492005814652084e-02  2.1173482689635478e-02  2.0798263873440942e-02  1.9524219573323894e-02  1.9992198462183419e-02  1.9312133148219630e-02  1.8800189692171679e-02  2.6946621308655626e-02  2.8144682473592010e-02  2.6773940333758538e-02  2.5362719517998449e-02  2.6498524268426627e-02  2.7877027730728726e-02  2.8044667675873210e-02  2.8967331728572500e-02  2.9806188074048806e-02  3.9079235691125827e-02  3.7139260445112267e-02  3.6156727373528409e-02  6.0913150304231625e-02  6.0921412275562900e-02  6.0914011229162193e-02  6.0890202943455832e-02  6.0892567345336060e-02  6.0840311587085395e-02  6.0796758202184789e-02  6.0870994137796577e-02  6.0874632100033035e-02  6.0013215934973954e-02  6.0019359033494486e-02  6.0168232195592045e-02  5.9830090765674415e-02  6.0686112923572982e-02  6.0483106507479852e-02  6.0550343121564695e-02  6.0648039705057243e-02  6.1733267458837546e-02  6.2012155045299631e-02  6.1866940026766425e-02  5.9473193071041229e-02  5.9781612653168476e-02  5.9983175078202902e-02  6.0075779566055997e-02  5.9684264306552583e-02  5.9503187000092973e-02  6.0185053326962071e-02  6.0412704112559133e-02  6.0499058600515979e-02  1.5531193278567274e-02  1.4954079936328480e-02  1.6301128680305213e-02  1.4029829858526764e-02  1.4922602298952580e-02  1.5181382047451449e-02  1.1255176460769100e-02  1.1666894980393989e-02  1.0734652117642610e-02  6.8527854596903658e-03  2.4418397860653758e-02  2.6205596066445194e-02  2.3967916287605369e-02  2.2303854473259204e-02  2.3263070042282237e-02  2.2155497589616435e-02  1.7828750556450976e-02  1.6450125345568369e-02  1.6753812586080066e-02  1.5428401705230655e-02  1.8665037627791474e-02  2.0588151987984908e-02  2.0843755208238002e-02  2.1931202755792877e-02  2.2148041473884987e-02  2.0569732107506747e-02  1.9308989946138909e-02  2.9236527060144540e-02  2.7885549145709121e-02  2.7156910449645692e-02  2.8482064803293232e-02  3.0075598080150909e-02  2.8636224581945986e-02  3.0561800730532100e-02  1.3827200220961204e-02  1.3877681685166319e-02  1.4413903239887751e-02  1.4349979803317642e-02  1.2565467332857062e-02  9.8234599249888872e-03  1.0029589089697970e-02  9.5358987977208296e-03  1.1741185633853780e-02  1.8695244517534716e-02  1.5898563079983243e-02  1.6479839502811990e-02  1.6149912036782545e-02  1.5508195390322794e-02  1.5653209007886262e-02  1.4529584852101375e-02  1.5137071873228016e-02  1.5096621323790031e-02  1.4515624351235722e-02  1.4401862387762584e-02  1.4790765138541377e-02  1.3991365399585228e-02  1.6907317028282746e-02  1.7098226179864107e-02  1.7635684695933088e-02  1.7970188057756901e-02  1.5525234811595380e-02  1.4461056292462386e-02  1.3893103253785078e-02  1.5649605344903839e-02  1.6216773573932995e-02  1.5641929013416506e-02  1.5642318460285010e-02  1.5056792213563651e-02  1.5618609060081234e-02  1.6222103613541160e-02  1.5642460829408372e-02  1.6813485520539732e-02  1.5649430820877649e-02  1.5063984202953327e-02  1.6250201915181867e-02  1.6234528677044283e-02  1.7375026074465068e-02  1.7409712361354055e-02  1.6245981136125423e-02  8.4657446469390499e-03  8.7153843129482746e-03  8.8498604707556612e-03  9.0424114352277637e-03  9.3208884107834553e-03  9.4688344055188951e-03  8.9636278483498678e-03  8.7991357494650469e-03  2.1525802741046256e-03  3.0620557516206522e-03  2.4085219303337617e-03  1.9868572768863592e-03  2.6810689432845598e-03  2.9151777765166233e-03  2.0700759051835264e-03  2.4175064111159623e-03  2.6331629022220519e-03  3.3472266883267619e-03  2.1204568547066392e-02  2.1905768671729685e-02  2.2960087677004609e-02  2.0216631903619667e-02  1.9386977462818845e-02  4.9855337387823967e-03  3.9691858783952282e-03  5.3085145738048668e-03  8.7419223497285405e-03  8.9825778736457584e-03  9.4304332992708288e-03  9.0851542589952504e-03  9.2372227827601221e-03  8.9677195605631123e-03  5.2617812681127682e-03  6.4541497980302185e-03  5.2139465205035262e-03  4.0682957578113809e-03  4.0402961830648555e-03  5.2780025558293014e-03  8.3395596236954424e-03  8.0848835349944491e-03  8.6050327134251162e-03  7.9558278431496200e-03  8.7571921508706307e-03  1.2687588667899851e-02  1.2506973391032553e-02  1.1839832951777332e-02  2.7135503239185090e-02  2.7680973337169137e-02  2.9129365952294359e-02  3.7874514704772183e-02  3.6416795096369609e-02  3.8502596436981340e-02  3.7068418185080339e-02  4.1829736845148194e-02  4.0107327120967193e-02  4.0659762368653117e-02  6.2125795663438323e-02  6.2295408715740630e-02  6.2411522213785868e-02  1.7577011902447787e-02  1.7907624432860227e-02  1.8947178915515946e-02  1.5970025459434357e-02  1.6967803578779302e-02  1.5903249277056532e-02  1.4848786510755014e-02  1.5841830887157557e-02  6.4884491544861820e-03  6.9092472351989067e-03  6.6501474475013454e-03  5.7426189209399412e-03  1.9318620066913650e-02  1.9775297092687508e-02  2.1072727284793834e-02  1.8826885562679235e-02  1.7493082293707260e-02  1.6899855277201756e-02  1.8309027988346532e-02  2.0088903091893148e-02  1.7812188729822175e-02  1.3258797746632417e-02  1.4048266937418900e-02  1.5462953501759705e-02  1.2085710893393583e-02  4.6624339734500173e-03  3.6657351078976733e-03  4.9646894196210475e-03  7.7478964922907444e-03  7.0598915383748174e-03  6.7748220558353162e-03  2.1659568230997794e-03  1.3112192357693318e-03  1.6093194523093338e-03  8.9665099460082415e-04  2.9827086935692824e-03  2.9855871781469725e-03  6.6404361494513085e-04  1.2307599903838458e-03  1.6439411891124370e-03  3.9921924647636654e-03  7.0754707581803427e-03  7.7918676612546292e-03  6.1829988449760261e-03  5.4711368282256978e-03  4.0715744250644070e-03  8.0336039125232985e-03  8.4223853013564789e-03  7.9225829189375745e-03  7.6523848715897907e-03  7.6409032966210160e-03  8.4403206918341502e-03  8.1320291302927894e-03  7.9466856016179796e-03  8.6142909209589585e-03  5.9812834747642797e-02  5.9641803662195771e-02  5.9465274155002371e-02  5.9604683855039399e-02  5.9411775207463352e-02  5.8938239189555132e-02  5.8812865253636430e-02  5.8917307929562068e-02  5.8814810136290641e-02  5.8752132156786721e-02  5.8621408750857661e-02  5.8596646694545597e-02  6.1477083038725185e-02  6.1287287626943063e-02  6.1234205303913374e-02  6.1381010385121344e-02  6.1334789186657787e-02  6.1044707294695036e-02  6.1305645446203948e-02  6.0978243674026704e-02  6.1230461188926284e-02  6.0870460493192932e-02  6.1301139109037214e-02  5.9287505465209188e-02  5.9553591236286979e-02  5.9404836495372558e-02  5.9855848852278536e-02  5.9669962433084325e-02  5.8485569645255808e-02  5.8638753631317674e-02  4.3357964034948342e-02  4.3597338015172973e-02  4.4322131398981258e-02  4.3934547130191966e-02  4.4138374527998639e-02  5.0674564264393984e-02  5.2700074282253796e-02  5.2417194946414072e-02  5.1718194210667361e-02  5.0641910481576860e-02  5.2100806885765738e-02  3.0510296752995214e-02  2.7615857788739265e-02  2.8550697933339256e-02  5.9192930146747822e-03  3.5497637864275254e-02  3.6553096536790800e-02  3.7869705924662163e-02  1.3579312846242315e-02  1.1798991732093251e-02  1.1888302650397354e-02  1.2627832411689494e-02  1.2956749502381027e-02  4.9915393216643594e-02  5.0762368444216138e-02  4.9777661155950927e-02  5.0899883004467995e-02  5.1071630957271304e-02  4.9745703706250345e-02  5.0441064480959870e-02  3.9618131399455803e-02  4.1753944781229867e-02  3.9805694352019742e-02  4.3703613554537134e-02  4.3512680634517860e-02  4.1985838081958660e-02  4.8231976519758774e-02  4.9502914592843131e-02  4.8887877098916968e-02  4.8440480745060563e-02  4.7118995195894575e-02  4.6889777136767008e-02  4.8051894867102457e-02  4.4959753679834215e-02  4.5816664522612377e-02  4.3936243534095823e-02  4.1834301569537796e-02  4.2624385870945566e-02  4.0377024023320926e-02  4.5225209137881008e-02  4.5427387178681194e-02  4.4022470241356478e-02  4.0202750253109383e-02  4.2854951747110397e-02  1.8812737016553838e-02  1.8027156579047642e-02  1.8051558253957503e-02  2.8779881062560565e-02  2.9427344596884224e-02  3.0808859694554526e-02  2.8567635554359198e-02  1.2562243118347260e-02  1.1657128083905319e-02  1.2104503462053284e-02  1.2239104616823650e-02  1.3049799446427679e-02  1.3334434591200902e-02  2.7277023356821958e-02  2.9435251489439464e-02  2.7401077123172066e-02  2.5237689610497081e-02  2.7217776434407301e-02  2.1640710814200631e-02  2.1669521368502774e-02  2.0156165607311437e-02  2.5311938509855584e-02  2.3368556216671478e-02  1.6267780619022933e-02  1.5541759538335590e-02  1.5507446817911753e-02  1.6336483954194826e-02  1.7147251167463264e-02  1.7157411198887768e-02  1.3472075384798077e-02  1.4169382361204982e-02  1.4158418902049127e-02  1.1707545457459395e-02  1.1395279641794187e-02  1.1218257347165497e-02  1.7270552150808922e-02  1.7935911073221532e-02  5.2268007702283306e-02  5.1648619068887791e-02  5.2298491365012169e-02  5.1829863868881568e-02  5.0901765179048104e-02  5.2927875273360701e-02  5.2624953714581819e-02  5.2653718434793724e-02  5.2517670701689140e-02  5.2546849097089274e-02  5.2096861579038464e-02  5.2057548765590878e-02  5.2202472929637138e-02  5.1774831730104769e-02  5.1937613572452579e-02  4.9872552981926131e-02  4.8920006830059558e-02  4.5893073276573514e-02  4.4507585287097286e-02  4.4843434302087176e-02  5.1928080868480865e-02  5.2251967931461675e-02  5.0627073811169668e-02  5.2050897214717978e-02  1.6090695347892158e-02  5.7353687898333651e-02  5.7445385400562272e-02  5.7281309195523947e-02  5.6808538873176127e-02  5.6896072109948764e-02  5.6996978108247554e-02  5.7128446989489150e-02  5.8654189191376611e-02  5.8749316874197884e-02  5.8834458391001584e-02  5.8721669076372753e-02  5.8564068297483972e-02  5.8483519983579292e-02  5.9090340214391843e-02  5.9272825769028918e-02  5.9307530903795209e-02  5.9041581651992393e-02  5.9535832968945546e-02  5.9513687152091203e-02  5.9539019742592070e-02  5.9296477426478020e-02  4.1541870242277991e-02  4.1100234962361371e-02  3.9634704107840445e-02  4.6035679051742467e-02  4.4724168421432654e-02  4.6315297107245065e-02  4.6497898664081043e-02  4.7740910864066698e-02  4.5030785616155679e-02  4.8802459437514101e-02  4.7375327046568737e-02  4.7911959364637866e-02  2.4600401709152106e-02  2.4164543047297257e-02  2.5970259048564794e-02  3.5649368813438935e-02  3.7245174485961222e-02  3.8104607753960823e-02  5.3262567536252282e-02  5.3507955019025874e-02  5.3218892649509318e-02  5.2941384697759102e-02  5.3044961816609164e-02  5.2726850862808136e-02  5.2791365713372167e-02  5.3019916102173159e-02  5.2595716170840787e-02  5.1927953302903188e-02  5.1961096757985950e-02  5.1865578462036536e-02  5.1843429263531096e-02  5.1890430318086836e-02  5.1656417349664710e-02  5.1566627326012762e-02  5.1781299717713482e-02  5.1999325729037781e-02  5.2037053537894451e-02  5.2183107837027086e-02  5.2240599052771029e-02  5.2188603727574528e-02  5.1993450186116924e-02  5.1829449520981320e-02  5.2036818475747794e-02  5.5459895735929153e-02  5.4799573877552826e-02  5.5095420139879676e-02  5.4338019256849196e-02  4.5776650319216391e-02  4.6161940113701123e-02  4.4943098964730338e-02  4.5445806506070593e-02  4.6642329229436709e-02  5.3236291195746174e-02  5.0985130806632410e-02  5.0156353388304910e-02  4.7722758175993356e-02  4.6928280712450587e-02  4.6195643702698783e-02  4.7354643614982393e-02  4.6389462138521707e-02  4.7511349770095815e-02  4.8399841680309363e-02  4.9297241702605209e-02  4.9343694226278059e-02  4.8315681642458627e-02  4.9320298173868127e-02  3.7788596310268263e-02  3.8016919406303550e-02  3.6816264434552243e-02  8.5799103156987237e-03  9.3611847957290571e-03  7.4565370195566610e-03  3.8528515031671429e-02  3.8118292316972745e-02  4.0445110008087939e-02  4.2168147177373209e-02  2.3186719900926328e-02  2.3297353067639803e-02  2.2603777336124505e-02  2.3047199515869241e-02  2.3729512457326324e-02  2.5770228007648929e-02  2.7048458737714689e-02  2.4696339098518476e-02  2.4311195368088442e-02  2.4965378407205238e-02  2.6731841094442717e-02  2.4462474757596137e-02  2.3912569413437140e-02  2.4231688711116174e-02  2.5659105041635481e-02  2.6349471595313687e-02  1.9683604178098425e-02  2.0059365448610238e-02  2.0256676414663836e-02  2.0342883173383248e-02  2.0593130020335488e-02  2.0854994571228306e-02  2.1101200634405879e-02  2.1647457839496828e-02  2.1253257631221319e-02  2.1809486017321862e-02  2.1666019442572220e-02  2.2260797812273948e-02  1.9970723755838263e-02  1.9834491843622109e-02  1.5217976703458438e-02  1.6135942981900808e-02  1.5648904830208074e-02  1.4805612536115844e-02  1.9745747034179563e-02  1.8692648883391859e-02  1.9161606597349622e-02  1.4990187297962327e-02  1.5983193340513149e-02  1.5341241762184165e-02  1.6591353733002960e-02  1.5513425446434848e-02  1.8101687944334512e-02  1.7012474037375651e-02  1.6538584751242133e-02  1.7339545833827512e-02  1.9562668992110961e-02  1.7083148909933406e-02  1.8180142120523102e-02  2.8193986047208762e-02  2.7082082657811056e-02  2.8000444747048082e-02  2.9335671315036289e-02  2.9216310394054638e-02  8.3703922147943359e-03  1.0411501375269132e-02  3.0600436436226897e-02  3.0617321152180042e-02  3.0470709917892101e-02  3.3734307390158001e-02  3.3986090840330413e-02  3.2802669490386883e-02  3.7902757769787833e-02  3.7170731127884486e-02  3.6812983981870377e-02  2.6969111731166832e-02  3.0060381848048004e-02  2.9153356915695663e-02  3.0263269847383534e-02  3.7533657944893557e-02  3.8014751137943829e-02  3.5854383339597659e-02  3.5005978114599767e-02  3.5548701944842963e-02  6.0854539378731566e-02  6.0855255414177009e-02  6.0795091037973294e-02  6.0821974088485081e-02  6.0806923749354924e-02  6.0386457751144706e-02  6.0303235992187260e-02  6.0163117325474393e-02  5.9955819896775800e-02  6.0368248918242953e-02  6.0323804363239808e-02  6.0350581278313976e-02  6.0226229201135663e-02  6.0322841384147653e-02  6.0088280148121453e-02  6.0420768050301013e-02  6.0512676264433338e-02  6.0596183277705259e-02  6.0643682347123126e-02  6.0979144668319087e-02  6.1029930964339833e-02  6.1025316057015722e-02  6.0946840990668306e-02  6.0982235629192007e-02  6.0879145128121391e-02  6.0929835674357335e-02  6.1094634296584703e-02  6.0898896261902015e-02  6.0772113904879667e-02  6.0774754169709046e-02  5.9809473868153946e-02  5.9992718134468805e-02  6.0156569750451458e-02  6.0919140459815821e-02  6.0924471690332181e-02  6.0708436676929135e-02  5.4793532409888518e-02  5.3992067989319423e-02  5.4062369242914257e-02  5.4801673336692398e-02  6.1706123632225322e-02  6.1943026150134320e-02  6.1345196785516566e-02  6.1531251342935883e-02  6.1358706846726896e-02  6.1193312877469562e-02  6.1285340812144720e-02  6.0934601264296798e-02  6.0777285551998565e-02  6.0780233978307147e-02  6.0770966090523661e-02  6.0510403693568179e-02  6.1523241842402092e-02  6.1314489005823695e-02  6.1117581437612728e-02  6.1206204280342791e-02  6.0878137015501564e-02  6.0771653504029979e-02  6.0842035942446401e-02  6.0924308985486404e-02  6.0793415831109768e-02  6.0366054582769502e-02  6.0627950414711730e-02  6.0444176587022752e-02  6.1069218279733092e-02  6.1050496960924780e-02  6.1077792887802747e-02  6.0686169690769648e-02  6.0180896597766605e-02  6.1074102813977252e-02  6.0798164404474039e-02  6.0837412815330533e-02  6.0730872241702094e-02  5.9335128726567869e-02  5.9076284870141535e-02  5.9617637110313967e-02  5.9879566009025297e-02  5.9582893291327689e-02  5.9766829605693468e-02  1.4360909784836206e-02  1.348432080