<?xml version="1.0"?>
<VTKFile type="UnstructuredGrid"  version="0.1"  >
<UnstructuredGrid>
<Piece  NumberOfPoints="6340" NumberOfCells="12376">
<Points>
<DataArray  type="Float64"  NumberOfComponents="3"  format="ascii">-0.0193680003285408 0.02080499939620495 0  -0.02017799951136112 0.02147700078785419 0  -0.0203699991106987 0.02047999948263168 0  -0.02106600068509579 0.02128800004720688 0  -0.01957800053060055 0.01988800056278706 0  -0.01923600025475025 0.02167900092899799 0  -0.01984599977731705 0.0224360004067421 0  -0.01936200074851513 0.02324100024998188 0  -0.02044299989938736 0.02324000000953674 0  -0.01875999942421913 0.02240199968218803 0  -0.007782999891787767 0.01871100068092346 0  -0.008457999676465988 0.01949699968099594 0  -0.008781000040471554 0.01855999976396561 0  -0.009463000111281872 0.01938300020992756 0  -0.02646300010383129 0.08050200343132019 0  -0.02741499990224838 0.08111599832773209 0  -0.02759500034153461 0.08032000064849854 0  -0.02733100019395351 0.0735900029540062 0  -0.02792000025510788 0.07447800040245056 0  -0.02817899920046329 0.0735509991645813 0  -0.02889999933540821 0.07415000349283218 0  -0.01254399958997965 0.09077499806880951 0  -0.01355099957436323 0.090768001973629 0  -0.01303999964147806 0.08990500122308731 0  -0.0205329991877079 0.08566900342702866 0  -0.01952099986374378 0.08566000312566757 0  -0.02005200088024139 0.08650899678468704 0  -0.02000300027430058 0.084818996489048 0  -0.02254699915647507 0.02494800090789795 0  -0.02151400037109852 0.02492699958384037 0  -0.02203500084578991 0.02581500075757504 0  -0.02250799909234047 0.02670500054955482 0  -0.02308899909257889 0.02584999985992908 0  -0.02099299989640713 0.025798000395298 0  -0.02047399990260601 0.0249249991029501 0  -0.01942499913275242 0.02492599934339523 0  -0.01995600014925003 0.02579000033438206 0  -0.02201800048351288 0.02403800003230572 0  -0.02315299957990646 0.02412699908018112 0  -0.02235000021755695 0.02277999930083752 0  -0.02172599919140339 0.0220550000667572 0  -0.02147999964654446 0.02314599975943565 0  -0.02082699909806252 0.02231799997389317 0  -0.01582599990069866 0.02213799953460693 0  -0.01634000055491924 0.02125200070440769 0  -0.01528999954462051 0.02128800004720688 0  -0.01680500060319901 0.02220099978148937 0  -0.01782700046896935 0.02221000008285046 0  -0.01733100041747093 0.02308899909257889 0  0.04264099895954132 0.08425699919462204 0  0.04236200079321861 0.08333999663591385 0  0.04367100074887276 0.08367899805307388 0  0.04491500183939934 0.09601599723100662 0  0.04570899903774261 0.09643299877643585 0  0.04469799995422363 0.09692399948835373 0  0.02841600030660629 0.1048329994082451 0  0.02849600091576576 0.1038789972662926 0  0.02941199950873852 0.1043490022420883 0  0.02750100009143353 0.1052770018577576 0  0.02755500003695488 0.1041190028190613 0  -0.00446399999782443 0.09964399784803391 0  -0.003443999914452434 0.09965600073337555 0  -0.00395999988541007 0.1005280017852783 0  -0.002940000034868717 0.1005370020866394 0  -0.01712699979543686 0.1010409966111183 0  -0.01764499954879284 0.1002940014004707 0  -0.01645000092685223 0.1003940030932426 0  -0.01815499924123287 0.1012599989771843 0  -0.01197199989110231 0.1074210032820702 0  -0.01208500005304813 0.1083720028400421 0  -0.01285799965262413 0.1075949966907501 0  -0.009037000127136707 0.09870299696922302 0  -0.008018000051379204 0.09871699661016464 0  -0.008535999804735184 0.099590003490448 0  -0.01005899999290705 0.09868499636650085 0  -0.009541000239551067 0.09781400114297867 0  -0.01056199986487627 0.09779699891805649 0  -0.01264199987053871 0.1012319996953011 0  -0.01312099955976009 0.1020679995417595 0  -0.01370299980044365 0.1012020036578178 0  -0.01160699967294931 0.09953200072050095 0  -0.01264499966055155 0.09951899945735931 0  -0.01211099978536367 0.09865599870681763 0  0.01334999967366457 0.09515900164842606 0  0.01435699965804815 0.09516000002622604 0  0.01385299954563379 0.09602300077676773 0  0.007840000092983246 0.07873199880123138 0  0.008337999694049358 0.07786300033330917 0  0.008844999596476555 0.07873199880123138 0  -0.00749000022187829 0.01786999963223934 0  -0.006674999836832285 0.01812900044023991 0  -0.008352999575436115 0.01770099997520447 0  -0.009254000149667263 0.01752400025725365 0  -0.01288000028580427 0.01724999956786633 0  -0.01314300019294024 0.01830100081861019 0  -0.01375100016593933 0.01739699952304363 0  -0.01231900043785572 0.01816200092434883 0  -0.01234699971973896 0.019166000187397 0  -0.01150400005280972 0.01837999932467937 0  -0.01189900003373623 0.0220589991658926 0  -0.01238000020384789 0.0210999995470047 0  -0.01143800001591444 0.02118800021708012 0  -0.01097400020807981 0.02037400007247925 0  -0.01042800024151802 0.02122999913990498 0  -0.01191500015556812 0.02018499933183193 0  -0.01285700034350157 0.02202999964356422 0  -0.01429599989205599 0.02120300009846687 0  -0.01480599958449602 0.02212999947369099 0  -0.01381999999284744 0.02206699922680855 0  -0.008956000208854675 0.02033899910748005 0  -0.01084200013428926 0.03093300014734268 0  -0.01134699955582619 0.03005699999630451 0  -0.01034399960190058 0.03005100041627884 0  -0.005367999896407127 0.03002000041306019 0  -0.005861000157892704 0.03090200014412403 0  -0.006360999774187803 0.03002599999308586 0  -0.0079950001090765 0.02046200074255466 0  -0.005514999851584435 0.02006600052118301 0  -0.006490999832749367 0.01985299959778786 0  -0.005716000217944384 0.0192280001938343 0  -0.005795000120997429 0.01840999908745289 0  -0.004819999914616346 0.0187199991196394 0  0.04661900177598 0.09199099987745285 0  0.04751000180840492 0.09155900031328201 0  0.04720399901270866 0.092678003013134 0  0.04614799842238426 0.09276899695396423 0  0.01667599938809872 0.05952300131320953 0  0.01769400015473366 0.05948999896645546 0  0.01720000058412552 0.06035999953746796 0  0.03052300028502941 0.04526799917221069 0  0.03102000057697296 0.04424300044775009 0  0.03146100044250488 0.0449960008263588 0  0.03257900103926659 0.04956600069999695 0  0.03350799903273582 0.04893999919295311 0  0.03385699912905693 0.0497019998729229 0  0.03232400119304657 0.0530019998550415 0  0.03135199844837189 0.05302999913692474 0  0.03189500048756599 0.05212400108575821 0  0.03145100176334381 0.05128299817442894 0  0.03248199820518494 0.05122299864888191 0  0.03089199960231781 0.05217500030994415 0  0.03035799972712994 0.05307000130414963 0  0.03040199913084507 0.0513559989631176 0  0.02986199967563152 0.05056099966168404 0  0.0293550007045269 0.05141700059175491 0  0.0288079995661974 0.05061100050806999 0  0.04417499899864197 0.09433499723672867 0  0.0431319996714592 0.09433700144290924 0  0.04364899918437004 0.09348899871110916 0  0.04262499883770943 0.09345699846744537 0  0.008484999649226665 0.02541200071573257 0  0.009277000091969967 0.02586599998176098 0  0.00848700013011694 0.02646300010383129 0  0.009349999949336052 0.02681300044059753 0  0.02831099927425385 0.05147000029683113 0  0.02422400005161762 0.05331600084900856 0  0.02372699975967407 0.05418200045824051 0  0.02319999970495701 0.05334899947047234 0  0.02475100010633469 0.05414700135588646 0  0.03084900043904781 0.05392799898982048 0  0.01984599977731705 0.03628699854016304 0  0.01892999932169914 0.03613400086760521 0  0.01937099918723106 0.03526199981570244 0  0.01408299989998341 0.04137900099158287 0  0.01309700030833483 0.04137599840760231 0  0.01358999963849783 0.04050400108098984 0  0.01260299980640411 0.04050200060009956 0  0.01210999954491854 0.04137299954891205 0  0.01210600044578314 0.0396290011703968 0  0.01309600006788969 0.03963100165128708 0  0.01358999963849783 0.04225099831819534 0  -0.02872099913656712 0.07505699992179871 0  -0.02757799997925758 0.07532300055027008 0  -0.02855700068175793 0.07588700205087662 0  -0.02693100087344646 0.07450100034475327 0  -0.02648499980568886 0.07534100115299225 0  -0.02542600035667419 0.07536499947309494 0  -0.02586800046265125 0.07620900124311447 0  -0.02488300018012524 0.07452300190925598 0  -0.02438800036907196 0.07537399977445602 0  -0.02486900053918362 0.0762220025062561 0  -0.02903999947011471 0.07320699840784073 0  -0.01956200040876865 0.08734600245952606 0  -0.02057899907231331 0.08735399693250656 0  -0.01811699941754341 0.09682399779558182 0  -0.01913000084459782 0.09685900062322617 0  -0.01861800067126751 0.0959789976477623 0  -0.01962600089609623 0.09601800143718719 0  -0.01911499910056591 0.0951320007443428 0  -0.01673500053584576 0.09954600036144257 0  -0.01575399935245514 0.09954000264406204 0  -0.01535299979150295 0.1003919988870621 0  -0.01404600031673908 0.0898979976773262 0  -0.01189099997282028 0.08305700123310089 0  -0.01088299974799156 0.08304999768733978 0  -0.01140899956226349 0.08390200138092041 0  -0.01093299966305494 0.08475200086832047 0  -0.01040599960833788 0.08389700204133987 0  -0.01587699912488461 0.08139699697494507 0  -0.01635999977588654 0.08055099844932556 0  -0.01535299979150295 0.08054500073194504 0  -0.01434599980711937 0.08053799718618393 0  -0.01482999976724386 0.07969000190496445 0  -0.01899399980902672 0.08480899780988693 0  -0.01846699975430965 0.08395899832248688 0  -0.01947499997913837 0.08396899700164795 0  -0.02048500068485737 0.08398000150918961 0  -0.02538600005209446 0.07707799971103668 0  -0.02583999931812286 0.07965599745512009 0  -0.02540200017392635 0.08049800246953964 0  -0.02357799932360649 0.02483999915421009 0  -0.02398999966681004 0.02552999928593636 0  -0.02429799921810627 0.02623599953949451 0  -0.02462900057435036 0.02699599973857403 0  -0.02352700009942055 0.02678499929606915 0  -0.01993300020694733 0.02407800033688545 0  -0.01887300051748753 0.02406699955463409 0  -0.0209950003772974 0.02405799925327301 0  -0.02274000085890293 0.02343299984931946 0  -0.01727000065147877 0.01842500083148479 0  -0.01689100079238415 0.01919100061058998 0  -0.01806999929249287 0.01875999942421913 0  -0.01644800044596195 0.01807999983429909 0  -0.01830900087952614 0.02320200018584728 0  -0.01631800085306168
[...]
<PointData  Scalars="pressure"> 
<DataArray  type="Float64"  Name="pressure"  format="ascii">5.9091565650338101e-02  5.9047913453287908e-02  5.9083468495433153e-02  5.9049472732450592e-02  5.9110979849755184e-02  5.9081124957105872e-02  5.9037621737067551e-02  5.9049629892011964e-02  5.8985272632487290e-02  5.9093738851357269e-02  5.8629471637073820e-02  5.8720590059257761e-02  5.8758977096693893e-02  5.8848831194395282e-02  5.4432811252257129e-02  5.4470044201604478e-02  5.4561789944443724e-02  5.5371546102366651e-02  5.5255095310280410e-02  5.5343165030343602e-02  5.5349973371795688e-02  4.3568028535963615e-02  4.4802420623324193e-02  4.5292437570149606e-02  5.2932136442848492e-02  5.2709583704838150e-02  5.2554608789241189e-02  5.3058063060319433e-02  5.8789331723234681e-02  5.8860265518817893e-02  5.8780277653460528e-02  5.8695011326625419e-02  5.8698258837661131e-02  5.8865626875448995e-02  5.8936592398183899e-02  5.9013678468960953e-02  5.8951688362758804e-02  5.8867296629695823e-02  5.8870847874594942e-02  5.8976753780419132e-02  5.9003905587128501e-02  5.8928890231438054e-02  5.8993629625320343e-02  5.9196731268404704e-02  5.9179457375111356e-02  5.9189927676451065e-02  5.9172751218620125e-02  5.9136274946960228e-02  5.9154368693778221e-02  6.1148983360217915e-02  6.0471804603780280e-02  6.0261998203804984e-02  6.5843283362292088e-02  6.6063817734944130e-02  6.5947556954137870e-02  6.0652353102300098e-02  6.1156510673631231e-02  6.1287724669299375e-02  5.9975649529922286e-02  6.0663183327532275e-02  3.1935553194564217e-02  3.2555132457404580e-02  3.2985209308948778e-02  3.3677782679834720e-02  3.9792716932009212e-02  4.0446709552531088e-02  3.9369581639685597e-02  4.0096826590628125e-02  3.6701158611113172e-02  3.6863850015514718e-02  3.6900009103015732e-02  3.2100049475621249e-02  3.1417725575998277e-02  3.2155246762618689e-02  3.2981879850348304e-02  3.2393331101329206e-02  3.3469927783988170e-02  3.6046326581662159e-02  3.6517446307336353e-02  3.6868899058453440e-02  3.4727956431554421e-02  3.5841615540943526e-02  3.5250558949877109e-02  4.6366703739816245e-02  4.7907460386812158e-02  4.8808920517683096e-02  4.6080226420900511e-04  9.3997677108367816e-04  4.7768998145795993e-04  5.8552580432403294e-02  5.8460860964991763e-02  5.8665137597332474e-02  5.8767735501253394e-02  5.9052613789357132e-02  5.9112294503406999e-02  5.9056450199966436e-02  5.9073946406210345e-02  5.9083347771782604e-02  5.9045132449617073e-02  5.9118792279296617e-02  5.9120515326213263e-02  5.9061480972776505e-02  5.9008108682407835e-02  5.8974947799433984e-02  5.9073534489849006e-02  5.9169210404994940e-02  5.9185850991096342e-02  5.9206366851555552e-02  5.9195693021776616e-02  5.8792783053806870e-02  5.9321404873507476e-02  5.9361599191665976e-02  5.9235300356819960e-02  5.7960508874075736e-02  5.8112294030928047e-02  5.8288897576746407e-02  5.8659038301427886e-02  5.8259234257599907e-02  5.8428434441449406e-02  5.8321915579664763e-02  5.8337040893636720e-02  5.8171129483609571e-02  6.5265393208017386e-02  6.5511850450484396e-02  6.5486224550489872e-02  6.5369534776299448e-02  3.1576475627580522e-02  3.2408905286807316e-02  3.0820378213999522e-02  4.7632198671026096e-02  4.7582504453559597e-02  4.7475278492889038e-02  4.6769891400581506e-02  4.6545296533494936e-02  4.6495889734445670e-02  4.5985884378281237e-02  4.5872140047603968e-02  4.6185752141098699e-02  4.6351883960538236e-02  4.6387536504554738e-02  4.6055667203151462e-02  4.5668794046780696e-02  4.6227770126219994e-02  4.6403295938105993e-02  4.6040091703839922e-02  4.6233229020286162e-02  6.5365961604334666e-02  6.5154483817003894e-02  6.5056321160996078e-02  6.4826365190832666e-02  5.3905846785535547e-02  5.3645991184461395e-02  5.3756955725965991e-02  5.3476836322503461e-02  4.5793394156311770e-02  4.3198851109258252e-02  4.2279612345433870e-02  4.2680507919949956e-02  4.2845834253724430e-02  4.5447034093191001e-02  5.0285271397631268e-02  5.0431236258953849e-02  5.0496369520319884e-02  4.9419925656005073e-02  4.9507156190868797e-02  4.9822816837556141e-02  4.9940009867944779e-02  4.9619774656778332e-02  5.0336137381509785e-02  5.0212508542790177e-02  4.9054947791263938e-02  5.5286830432799049e-02  5.5180586172741720e-02  5.5242222335948901e-02  5.5291337045273309e-02  5.5177722169593789e-02  5.5151989394225637e-02  5.5075744230203318e-02  5.5225658397742579e-02  5.5082022025419813e-02  5.5004330426851433e-02  5.5469063272759092e-02  5.2057420472169602e-02  5.2343483548083866e-02  4.3267243445915315e-02  4.4204239117312888e-02  4.4528571647400712e-02  4.5389640089025948e-02  4.5799924546161247e-02  4.0021530351456946e-02  3.9092115362517041e-02  3.8444087280587666e-02  4.6485487772085721e-02  4.6528155048988398e-02  4.4764455955919658e-02  4.5879014773346494e-02  4.5228790818687206e-02  4.4117207621184179e-02  5.1202144242652334e-02  5.1577717674630784e-02  5.0616640628995339e-02  4.9481660771982350e-02  4.9871391248030632e-02  5.2769154274203998e-02  5.2742299548954853e-02  5.3117690871736865e-02  5.3333136274508267e-02  5.4929450715107929e-02  5.4568692383887320e-02  5.4414604290422053e-02  5.8808337370833359e-02  5.8764998688221923e-02  5.8691179728197568e-02  5.8611642432766675e-02  5.8612898456323628e-02  5.8997235880274890e-02  5.9065454466950731e-02  5.8927323785419018e-02  5.8927571282134258e-02  5.9140728301264871e-02  5.9161038845033181e-02  5.9154804427205124e-02  5.9134360878137920e-02  5.9107185553609318e-02  5.9193080944964102e-02  5.9219326905749652e-02  5.9179061448435641e-02  5.9423464149714868e-02  5.9388081610210523e-02  5.9461834583829719e-02  5.9045320202364693e-02  5.8996551173815262e-02  5.8951933213304906e-02  5.9084012491433573e-02  5.8857059766039437e-02  5.8905790073673303e-02  5.8886123195243278e-02  5.8802746725623717e-02  5.8988314640528984e-02  6.5882276754622188e-02  6.6070660117820035e-02  6.6144731034428944e-02  6.4147164868787618e-02  6.4572059257535577e-02  6.4314116959138953e-02  6.1152453207433698e-02  6.0797319317186967e-02  6.0453880090183459e-02  5.9301878400890469e-02  6.5639865623643101e-02  6.5453615732583181e-02  6.5442426535221893e-02  6.5571192088956232e-02  6.5751564296351983e-02  6.5852842510085025e-02  6.4589981909946928e-02  6.4460432322668917e-02  6.4212705632518241e-02  6.4052176460750593e-02  6.5638400732096105e-02  6.5685303701337072e-02  6.5449818793901507e-02  6.5301485758010841e-02  6.5050592187625586e-02  6.5025108679694646e-02  6.5441385801048246e-02  5.8476058489309979e-02  5.7674716776057039e-02  5.8277045003062571e-02  6.0343467469927421e-02  6.0010048005707826e-02  5.9632933954785791e-02  5.9277425329188352e-02  3.1515315832430904e-02  3.2279039931073727e-02  3.1701710277250973e-02  3.1023657765695371e-02  3.1557858128352954e-02  3.8036797226792908e-02  3.6787173829179343e-02  3.8113437882981688e-02  3.4095491142308178e-02  3.9293848659036200e-02  3.6738658020151450e-02  3.7105532333412392e-02  3.6662560187903523e-02  3.7022377738234045e-02  3.7148337175143327e-02  3.6619252341381241e-02  3.6749056642000913e-02  3.6450479158042337e-02  3.6245221470664425e-02  3.2125543964039979e-02  3.3293824620208717e-02  3.2425602433039491e-02  3.4617129516085310e-02  3.4304937735486429e-02  3.5955220604347943e-02  3.6474928550277716e-02  3.1523211903147899e-02  3.2529407127776008e-02  3.3114030416200965e-02  3.6345357351990557e-02  3.6350421352508808e-02  3.5852385876786977e-02  3.5244367249162425e-02  3.5444305371253371e-02  3.2855218123948773e-02  3.3712750555249908e-02  3.3697886105794397e-02  3.4042113742990987e-02  3.4508370389351242e-02  3.3887159326124461e-02  3.5202170968428273e-02  3.6755402478447982e-02  3.7190801436291512e-02  3.6424828224605826e-02  3.4488165195812631e-02  4.1184014257882942e-02  4.0894106017343175e-02  4.1751271520985581e-02  4.1393292791870206e-02  3.8517763323225845e-02  3.8647376345649978e-02  3.9271129533682572e-02  3.9029826091638783e-02  3.5153018324210340e-02  3.6309335215384833e-02  3.5654099926786059e-02  3.4753046460028122e-02  3.5660114586625886e-02  3.5166538173626541e-02  3.4480440580281234e-02  3.4344605151275125e-02  3.5278345459718946e-02  3.5910434886123048e-02  5.2629851029154295e-02  5.3892755158213068e-02  5.3987180228798629e-02  5.2559355408910026e-02  5.1439799098612432e-02  3.9001662665828774e-02  3.8036818358106891e-02  3.9378975638153457e-02  4.3021112146515647e-02  4.3299375736305074e-02  4.3965616441052360e-02  4.2296619574548514e-02  4.3155781983067021e-02  4.2558876100491541e-02  4.9440260785483955e-02  5.2318258012915675e-02  5.0637222777690269e-02  4.7548914288361048e-02  4.8938081687198792e-02  5.1667395860052250e-02  1.6901125971254677e-03  2.4531486391403054e-03  2.6228249020338462e-03  1.7033038101890094e-03  2.0638746096616825e-03  9.7541593728877954e-03  9.7375521111235791e-03  8.1617531093186382e-03  3.3248342069669520e-02  3.3959226208318219e-02  3.4750843459293024e-02  3.9822178934602340e-02  3.9014465927813269e-02  4.0153260329447757e-02  3.9375141749559334e-02  4.3135577093324037e-02  4.2169031297910844e-02  4.2736613832191739e-02  5.9263824589402117e-02  5.9331548383376183e-02  5.9178913605890511e-02  3.3227441256956952e-02  3.4074046265812272e-02  3.4660808373111154e-02  3.0057400332914833e-02  3.0988573396557341e-02  2.9327126868494660e-02  2.7581992463158990e-02  2.8680904719144633e-02  5.1263732355930541e-02  4.8865412838816333e-02  5.0076455638161071e-02  4.6849040645281649e-02  3.8189069547315269e-02  3.7279084812719993e-02  3.7872655851803438e-02  3.9009795583484941e-02  3.8617846933375152e-02  3.9426683610978237e-02  3.9688425850329445e-02  4.0015276242854877e-02  4.0285782338488035e-02  4.1759435500692263e-02  4.1888534688227591e-02  4.1373566193478387e-02  4.2355527666459246e-02  4.8613078857890631e-02  4.8286889278684256e-02  4.9922924885637862e-02  4.6297493476406368e-02  4.5429694388724837e-02  4.6534140371940758e-02  4.1939426169247958e-02  3.9761001672074775e-02  3.7918931903143147e-02  3.5619588978933026e-02  4.7139497998722669e-02  4.5665637034060021e-02  3.7692437102473955e-02  4.1674188075138632e-02  4.5004918398489649e-02  5.0324723930861938e-02  5.3573113627552842e-02  5.3464803496549598e-02  5.2362969374509759e-02  5.2202349444195981e-02  4.9531056469538995e-02  3.7153665386597395e-04  9.2580401957745306e-04  9.4657021557101317e-05  6.8745472984854672e-05  0.0000000000000000e+00  1.1504753918420638e-03  4.7166491620222531e-03  2.9637784746627469e-03  3.6598409230419737e-03  5.9171981482301468e-02  5.9097193404360329e-02  5.9071276727491615e-02  5.9141072386260971e-02  5.9118841792927243e-02  5.9008971476086837e-02  5.9000411044452430e-02  5.8944557927483390e-02  5.8952346742350954e-02  5.8969849433699560e-02  5.8878930315919321e-02  5.8850538917133439e-02  5.9437411667445685e-02  5.9380182352013505e-02  5.9433773936750631e-02  5.9465672973710103e-02  5.9132205750334427e-02  5.9021204785705841e-02  5.8937817814749202e-02  5.8819204490957309e-02  5.8708945694513244e-02  5.8579830831649547e-02  5.7756032181565858e-02  5.7641982969049162e-02  5.7719434503539647e-02  5.7894953270440787e-02  5.7804559733954541e-02  5.7510164841119669e-02  5.8586282910204110e-02  5.8499045806812699e-02  5.5414689105276221e-02  5.5472575557177585e-02  5.5522257670372908e-02  5.5501354631799033e-02  5.5471103406636461e-02  5.2693754506914381e-02  5.3737525377225301e-02  5.3457945667458207e-02  5.3349063908500589e-02  5.2769482650563845e-02  5.3505740040208596e-02  4.1648340752945226e-02  4.1491135306564703e-02  4.1773824934619230e-02  5.8766430866641135e-02  4.2372082924603496e-02  4.2547257510341822e-02  4.2748989285986277e-02  6.5017786926415438e-02  6.4058331028423815e-02  6.4483541276155340e-02  6.4460404902802901e-02  6.4889777041009344e-02  4.5340858229110229e-02  4.5507695834023351e-02  4.5130282713831779e-02  4.5735775974900500e-02  4.5482153503610213e-02  4.5295155362171539e-02  4.5526513163778717e-02  4.2648294625140803e-02  4.3249712168086624e-02  4.2957541916463268e-02  4.3744438427032836e-02  4.3536272089224046e-02  4.3500885699644470e-02  4.4673183383326528e-02  4.5198684050118079e-02  4.4942968261104832e-02  4.4876081022004861e-02  4.4569269752163687e-02  4.4384174352155012e-02  4.4676369970371277e-02  4.3351522053305259e-02  4.3776234935174976e-02  4.3084919775022740e-02  4.2320426490737875e-02  4.2844826923327417e-02  4.2065067243887644e-02  4.4068674889081588e-02  4.3963998922025738e-02  4.3695799239834632e-02  4.3037985242572692e-02  4.3760440167728482e-02  2.3409774088460317e-02  2.1703248621108166e-02  2.2044053001234486e-02  3.4185497968394221e-02  3.4607714592327428e-02  3.5573950084879249e-02  3.4160466974010345e-02  1.9084009192619558e-02  1.7567679302839305e-02  1.9446465443369337e-02  1.7306571161538428e-02  1.8934784798981488e-02  2.0666690796515626e-02  3.9073969629813840e-02  4.0237029485727063e-02  3.8849016447702223e-02  3.7905997901850723e-02  3.9339735818897104e-02  3.5261557188944290e-02  3.4941558348174209e-02  3.3736137816832878e-02  3.7641792505721833e-02  3.6429705794688585e-02  2.2181207327637252e-02  2.0342580121548562e-02  2.1504101836397102e-02  2.1148603036095955e-02  2.2999111551132670e-02  2.3978122089698718e-02  1.7468907431471628e-02  1.9234604579927359e-02  1.7887622736969637e-02  3.6605694100270238e-02  3.9064141716879643e-02  3.6634043529147037e-02  1.9969810315824107e-02  2.1488654857119316e-02  4.7438423948660671e-02  4.6006380774138850e-02  4.6294256128324801e-02  4.6059685598947450e-02  4.5725454639393058e-02  4.6247338407512717e-02  4.6210665209083138e-02  4.6386025067967324e-02  4.6694137507052869e-02  4.6565012320403290e-02  4.6244289476689529e-02  4.7106172204402344e-02  4.6891447677751073e-02  4.6869449930544926e-02  4.6680123113756120e-02  4.6011506793762286e-02  4.5494141242282946e-02  4.5138239830106001e-02  4.4387252411126253e-02  4.4821765711017647e-02  4.7320443610778272e-02  4.7292865861838881e-02  4.5854450164148561e-02  4.6513498984862706e-02  6.4706185499900648e-02  5.3249433512308875e-02  5.3322734546756442e-02  5.3165915075075523e-02  5.2684076650600799e-02  5.2803281551155885e-02  5.2831243411940197e-02  5.3023006244903109e-02  5.5033528961837191e-02  5.5073378177847056e-02  5.5406562016152280e-02  5.5364470786280734e-02  5.5010765067291460e-02  5.4694378810998187e-02  5.6146070110585276e-02  5.6215668449552017e-02  5.6540534537563109e-02  5.5806708413190798e-02  5.6618014069077370e-02  5.6300957386311773e-02  5.6917893757129016e-02  5.6845821989559918e-02  4.1907324824604249e-02  4.1560849935436225e-02  4.0879258150488595e-02  4.3916718434745622e-02  4.3390818291635914e-02  4.4185090897710208e-02  4.4472843525166422e-02  4.4883812670018036e-02  4.3703546688808499e-02  4.4935283054080066e-02  4.4320639754854292e-02  4.4579636548529325e-02  3.5539088406749617e-02  3.4409254817188061e-02  3.5481787025636632e-02  4.0352648866006022e-02  4.0586057654405275e-02  4.1244872730175131e-02  5.0572233508839944e-02  5.0608963424924255e-02  5.0445442913009217e-02  5.0355196997147925e-02  5.0476426054779450e-02  5.0268080618168558e-02  5.0467259782785732e-02  5.0566750329478855e-02  5.0340626941684952e-02  4.8698413971900500e-02  4.8540183266358769e-02  4.8747940398480107e-02  4.8900070070513495e-02  4.8837777956790195e-02  4.9028870420074776e-02  4.9140263609555868e-02  4.9237458112996513e-02  4.9327576526713178e-02  4.9560059436958598e-02  4.9592243664515923e-02  4.9624775039178073e-02  4.9737339587321204e-02  4.9586414165244341e-02  4.9523778503309461e-02  4.9714932733948156e-02  5.1913976958139603e-02  5.1590998398011609e-02  5.1795572010884770e-02  5.1435593955721323e-02  4.6946672864541239e-02  4.6997814272794473e-02  4.6369690022170118e-02  4.6918011474780218e-02  4.7497255720034118e-02  5.0694813159551433e-02  4.9741504272434595e-02  4.9353056945324270e-02  4.8012282469926545e-02  4.7514778632701815e-02  4.7524226717859989e-02  4.8052964909342195e-02  4.7504281711852746e-02  4.8024998077914695e-02  4.8520178042198450e-02  4.8986858814220997e-02  4.8932970875251607e-02  4.8570592877368882e-02  4.9146912877045465e-02  5.4504558953165798e-02  5.4376341002182083e-02  5.4122129719870536e-02  3.1335817307078948e-02  3.2889176663276676e-02  3.0475482888069491e-02  5.4865921781064413e-02  5.4788831506173120e-02  5.5112959111052698e-02  5.5355709114184873e-02  4.8231890922570089e-02  4.8705260282758789e-02  4.7457938883485366e-02  4.7778032754417207e-02  4.8906596279932414e-02  5.0915815188762113e-02  5.1748364173138890e-02  5.0085101000405759e-02  4.9858032228563748e-02  5.0519100521895254e-02  5.2257717769923148e-02  4.9909940550920490e-02  4.9352210718803871e-02  4.9477585710329508e-02  5.1456513754259275e-02  5.1797945499144168e-02  4.0705243126212175e-02  4.1045296960823333e-02  4.1957942829647182e-02  4.1740297259612695e-02  4.2597615610545161e-02  4.2979253259497599e-02  4.3883712708848117e-02  4.5092226458454565e-02  4.4617768050162633e-02  4.5771456762497678e-02  4.4881148590591557e-02  4.6127277877319725e-02  4.3046602253362827e-02  4.0749856270668051e-02  3.6284888288363140e-02  3.7851779201537192e-02  3.7663458991310420e-02  3.5776251567189554e-02  4.6122126719441256e-02  4.4418187095939754e-02  4.5183600869570975e-02  3.6421221497096173e-02  3.8873520318970872e-02  3.7165763869702356e-02  4.0342228287232287e-02  3.7921640891994277e-02  4.3354230180856886e-02  3.9593890029669010e-02  3.7772862021112658e-02  3.9347521530680739e-02  4.4033772806162469e-02  4.1238300650914363e-02  4.2755697696941097e-02  5.2396426333261983e-02  5.2105606625746918e-02  5.1011036527559693e-02  5.1914766769262752e-02  5.1418021943137479e-02  3.2116032173286138e-02  3.4455862584018990e-02  5.2266973711947391e-02  5.2652409969003694e-02  5.1726678677879917e-02  5.3972786122014699e-02  5.3903818455509379e-02  5.3643084348372921e-02  5.4785491834751295e-02  5.4593943404078096e-02  5.4578056898000840e-02  5.2431517272934311e-02  5.3337171269652497e-02  5.3055532590811950e-02  5.3313268194014961e-02  5.4562975237440720e-02  5.4703528738783445e-02  5.4334421641535631e-02  5.4158863479058551e-02  5.4303006477178221e-02  5.8509692884024009e-02  5.8526147097743092e-02  5.8390523850720071e-02  5.8489337892596915e-02  5.8466216505615100e-02  5.9128536065182258e-02  5.9145564886643825e-02  5.9164210464571834e-02  5.9165323088956258e-02  5.9157742989483009e-02  5.9145480802741582e-02  5.9217675828109086e-02  5.8014790877826281e-02  5.8173554712183141e-02  5.7945181984299578e-02  5.8211989843632170e-02  5.8244455378085556e-02  5.8269389272537220e-02  5.8402575586632033e-02  5.9092620149809316e-02  5.9217335994515938e-02  5.9143157700378576e-02  5.8997456891083301e-02  5.9040239775382045e-02  5.8875373697950706e-02  5.8958140849394373e-02  5.9193637727652619e-02  5.8906699541813115e-02  5.8742797432271024e-02  5.8727452124479301e-02  5.7693076681972086e-02  5.7793379765190632e-02  5.7875545134785440e-02  5.8878714040958083e-02  5.8975034338341253e-02  5.9211184787646448e-02  5.4898555702072339e-02  5.4536122016156680e-02  5.4624666611747412e-02  5.4940134422423847e-02  5.9483493523633572e-02  5.9470421579988386e-02  5.9420614996696951e-02  5.9448368760160131e-02  5.9363184445957382e-02  5.9376537497554130e-02  5.9443648056869122e-02  5.8933162471761197e-02  5.8747653315543193e-02  5.8734460275441748e-02  5.8700118626455536e-02  5.8483490002004042e-02  5.9383478639050746e-02  5.9266120433802062e-02  5.9112031480412691e-02  5.9126338649876403e-02  5.9238167677496123e-02  5.9251519104898238e-02  5.9298282774634191e-02  5.9347808435810966e-02  5.9334511938812465e-02  5.9168524866832772e-02  5.9246697800164803e-02  5.9251861491978801e-02  5.9383129331280940e-02  5.9410113418985194e-02  5.9308389041780908e-02  5.9314355008181580e-02  5.9181277355887858e-02  5.9187994355782217e-02  5.9088591288651897e-02  5.9226400856252262e-02  5.8912058450982963e-02  5.8944462822459444e-02  5.8864123857156683e-02  5.9025763843364561e-02  5.8784762315742881e-02  5.8682172679683495e-02  5.8588822256662412e-02  6.5786597098911020e-02  6.611054387