<?xml version="1.0"?>
<VTKFile type="UnstructuredGrid"  version="0.1"  >
<UnstructuredGrid>
<Piece  NumberOfPoints="6340" NumberOfCells="12376">
<Points>
<DataArray  type="Float64"  NumberOfComponents="3"  format="ascii">-0.01935400068759918 0.02067000046372414 0  -0.02002800069749355 0.02132299914956093 0  -0.02025000005960464 0.02033999934792519 0  -0.0208090003579855 0.02108100056648254 0  -0.01958600059151649 0.01975099928677082 0  -0.01919299922883511 0.02154500037431717 0  -0.01968600042164326 0.02227899990975857 0  -0.01922200061380863 0.02309400029480457 0  -0.02015900053083897 0.02302299998700619 0  -0.01873799972236156 0.02227099984884262 0  -0.00874600000679493 0.01758100092411041 0  -0.009366000071167946 0.01849599927663803 0  -0.009697999805212021 0.01755700074136257 0  -0.01032400038093328 0.01851199939846992 0  -0.02579000033438206 0.07611499726772308 0  -0.02674500085413456 0.07657299935817719 0  -0.02688200026750565 0.07578399777412415 0  -0.02630800008773804 0.06944199651479721 0  -0.02691200003027916 0.07020299881696701 0  -0.02713000029325485 0.06928899884223938 0  -0.02785000018775463 0.06976000219583511 0  -0.01325799990445375 0.08774799853563309 0  -0.01420100033283234 0.08762700110673904 0  -0.01361100003123283 0.08688999712467194 0  -0.02026900090277195 0.08196700364351273 0  -0.01929499953985214 0.08209499716758728 0  -0.01986999996006489 0.08284000307321548 0  -0.01969899982213974 0.08121799677610397 0  -0.02188199944794178 0.02447200007736683 0  -0.02099299989640713 0.02458200044929981 0  -0.02139000035822392 0.02535500004887581 0  -0.02174399979412556 0.02613599970936775 0  -0.02229500003159046 0.02525600045919418 0  -0.02049300074577332 0.02546999976038933 0  -0.02009299956262112 0.02466199919581413 0  -0.0191820003092289 0.02473100088536739 0  -0.01959500089287758 0.0255379993468523 0  -0.02147999964654446 0.02367899939417839 0  -0.02245200052857399 0.0236200001090765 0  -0.02184000052511692 0.02245000004768372 0  -0.02133899927139282 0.02178500033915043 0  -0.02106500044465065 0.0228630006313324 0  -0.02054399996995926 0.02209999971091747 0  -0.0161530002951622 0.02196200005710125 0  -0.01665399968624115 0.02108299918472767 0  -0.01570400036871433 0.0210609994828701 0  -0.01703299954533577 0.02207900024950504 0  -0.01792900077998638 0.02208299934864044 0  -0.01744900085031986 0.0229640007019043 0  0.0431240014731884 0.08168099820613861 0  0.04275700077414513 0.08079800009727478 0  0.04409100115299225 0.08104799687862396 0  0.04596599936485291 0.09295299649238586 0  0.04677699878811836 0.09330599755048752 0  0.04566700011491776 0.0937889963388443 0  0.02779199928045273 0.1015700027346611 0  0.02794899977743626 0.1006959974765778 0  0.02888499945402145 0.1010940000414848 0  0.02678800001740456 0.1020070016384125 0  0.02693199925124645 0.1009479984641075 0  -0.006568999961018562 0.09683900326490402 0  -0.005576999858021736 0.09695299714803696 0  -0.006169000174850225 0.09769999980926514 0  -0.005173000041395426 0.09781400114297867 0  -0.01882700063288212 0.09668199717998505 0  -0.0192280001938343 0.09593100100755692 0  -0.01811099983751774 0.09616299718618393 0  -0.01982500031590462 0.09676399827003479 0  -0.01463000010699034 0.1031870022416115 0  -0.01484199985861778 0.1040500029921532 0  -0.01549800019711256 0.1032489985227585 0  -0.01086299959570169 0.09548299759626389 0  -0.009890000335872173 0.09561300277709961 0  -0.01048200018703938 0.0963589996099472 0  -0.01183499954640865 0.09534499794244766 0  -0.01124299969524145 0.09460099786520004 0  -0.01221400033682585 0.09446299821138382 0  -0.01458199974149466 0.09739399701356888 0  -0.01513199973851442 0.09811100363731384 0  -0.01558999996632338 0.09723900258541107 0  -0.01340499985963106 0.09594500064849854 0  -0.01439199969172478 0.09580899775028229 0  -0.01378600019961596 0.09507299959659576 0  0.01252999994903803 0.09325599670410156 0  0.01359799969941378 0.09322299808263779 0  0.01299799978733063 0.09402800351381302 0  0.007915999740362167 0.07844699919223785 0  0.008414999581873417 0.0775889977812767 0  0.008983000181615353 0.07841300219297409 0  -0.008489999920129776 0.01665999926626682 0  -0.007703000213950872 0.01681900024414062 0  -0.009314999915659428 0.01659899950027466 0  -0.01017600018531084 0.01653599925339222 0  -0.01362999994307756 0.01669000089168549 0  -0.01383799966424704 0.0178030002862215 0  -0.01443300023674965 0.01692299917340279 0  -0.01307199988514185 0.01757499948143959 0  -0.01307199988514185 0.01862600073218346 0  -0.01229200046509504 0.01770799979567528 0  -0.01255900040268898 0.02158199995756149 0  -0.01303699985146523 0.02063200064003468 0  -0.01215299963951111 0.02062899991869926 0  -0.01173400040715933 0.01972699910402298 0  -0.01119299978017807 0.02055500075221062 0  -0.01263399980962276 0.01963900029659271 0  -0.0134469997137785 0.02163900062441826 0  -0.01480900030583143 0.02091499976813793 0  -0.01523299980908632 0.0218959990888834 0  -0.01433799974620342 0.02176599949598312 0  -0.009816000238060951 0.01944500021636486 0  -0.01128000020980835 0.03067599982023239 0  -0.01177799981087446 0.02981499955058098 0  -0.01084799971431494 0.02971700020134449 0  -0.006147000007331371 0.02910099923610687 0  -0.006591999903321266 0.03009100072085857 0  -0.007089999970048666 0.02924199961125851 0  -0.008899999782443047 0.01944299973547459 0  -0.006541000213474035 0.01868800073862076 0  -0.007482999935746193 0.01860000006854534 0  -0.006756000220775604 0.01783699914813042 0  -0.006852000020444393 0.01699000038206577 0  -0.005909999832510948 0.01717999950051308 0  0.0479470007121563 0.08914300054311752 0  0.04878700152039528 0.08863800019025803 0  0.04859999939799309 0.08979900181293488 0  0.04751800000667572 0.08994500339031219 0  0.01587600074708462 0.05837099999189377 0  0.01692000031471252 0.05823099985718727 0  0.01647000014781952 0.0591449998319149 0  0.02917099930346012 0.04279699921607971 0  0.02961299940943718 0.04172499850392342 0  0.03012000024318695 0.04243599995970726 0  0.03152300044894218 0.04697100073099136 0  0.03243000060319901 0.04626699909567833 0  0.03281600028276443 0.04702600091695786 0  0.03141500055789948 0.05052600055932999 0  0.03044700063765049 0.05060699954628944 0  0.03095299936830997 0.04964099824428558 0  0.03046599961817265 0.04880800098180771 0  0.03150200098752975 0.0486770011484623 0  0.02994499914348125 0.04975999891757965 0  0.02944800071418285 0.05071499943733215 0  0.02941299974918365 0.04895300045609474 0  0.02882299944758415 0.04818300157785416 0  0.02835600078105927 0.04909100010991096 0  0.02775299921631813 0.04831900075078011 0  0.04530699923634529 0.09144400060176849 0  0.04419900104403496 0.09148100018501282 0  0.04481200128793716 0.09068900346755981 0  0.04372800141572952 0.09069500118494034 0  0.006870999932289124 0.02312400005757809 0  0.007625999860465527 0.02359200082719326 0  0.006901000160723925 0.02422199957072735 0  0.007720000110566616 0.02457999996840954 0  0.02729599922895432 0.04922699928283691 0  0.0232280008494854 0.05143800005316734 0  0.02277499996125698 0.05235100165009499 0  0.02217499911785126 0.05156800150871277 0  0.02382400073111057 0.05222399905323982 0  0.02997699938714504 0.05156899988651276 0  0.01798900030553341 0.03451399877667427 0  0.01709800027310848 0.03436800092458725 0  0.01749599911272526 0.03345600143074989 0  0.01260400004684925 0.03984799981117249 0  0.01166199985891581 0.03983800113201141 0  0.0121069997549057 0.03892999887466431 0  0.01116400025784969 0.03892099857330322 0  0.0107190003618598 0.03982700034976006 0  0.01066800020635128 0.03800199925899506 0  0.01161000039428473 0.0380139984190464 0  0.01215900015085936 0.04075599834322929 0  -0.02771800011396408 0.07063999772071838 0  -0.02662000060081482 0.07104700058698654 0  -0.02759700082242489 0.07144500315189362 0  -0.02595200017094612 0.07035999745130539 0  -0.02555800043046474 0.071212999522686 0  -0.02452900074422359 0.07138100266456604 0  -0.02499799989163876 0.07211700081825256 0  -0.02396300062537193 0.07066100090742111 0  -0.02352100051939487 0.0715320035815239 0  -0.0240279994904995 0.07226599752902985 0  -0.02795499935746193 0.0688449963927269 0  -0.0194690003991127 0.08370800316333771 0  -0.02044199965894222 0.08358199894428253 0  -0.01924999989569187 0.092678003013134 0  -0.02020400017499924 0.09259600192308426 0  -0.0196129996329546 0.09184499830007553 0  -0.02056300081312656 0.09176699817180634 0  -0.01997100003063679 0.09100999683141708 0  -0.01827899925410748 0.09534700214862823 0  -0.01735099963843822 0.09545599669218063 0  -0.01706800051033497 0.09629199653863907 0  -0.01455199997872114 0.08676899969577789 0  -0.01175300031900406 0.08062600344419479 0  -0.0107829999178648 0.08075500279664993 0  -0.01136100012809038 0.08149900287389755 0  -0.01099400036036968 0.08236599713563919 0  -0.01040599960833788 0.08162499964237213 0  -0.01553099974989891 0.07845299690961838 0  -0.0159670002758503 0.07756000012159348 0  -0.01498600002378225 0.07769499719142914 0  -0.01400499977171421 0.0778300017118454 0  -0.01443899981677532 0.07694000005722046 0  -0.01872199960052967 0.08134900033473969 0  -0.01816499978303909 0.08059299737215042 0  -0.0191469993442297 0.08045999705791473 0  -0.02012999914586544 0.08032900094985962 0  -0.02457199990749359 0.07300300151109695 0  -0.02514299936592579 0.07538799941539764 0  -0.02475900016725063 0.07625699788331985 0  -0.02277600020170212 0.02424000017344952 0  -0.02308999933302402 0.02483999915421009 0  -0.02331800013780594 0.02544399909675121 0  -0.02356399968266487 0.02609300054609776 0  -0.02261899970471859 0.02607499994337559 0  -0.01967000029981136 0.02387199923396111 0  -0.01875099912285805 0.02393100038170815 0  -0.02059300057590008 0.0237830001860857 0  -0.0221369992941618 0.02301800064742565 0  -0.01761100068688393 0.01824099943041801 0  -0.01723800040781498 0.01900400035083294 0  -0.01831999979913235 0.01862999983131886 0  -0.01688399910926819 0.01784100010991096 0  -0.01830100081861019 0.02307300083339214 0  -0.01655
[...]
<PointData  Scalars="pressure"> 
<DataArray  type="Float64"  Name="pressure"  format="ascii">9.3617154584820325e-02  9.3312489629191350e-02  9.3492183827579942e-02  9.3185276240816739e-02  9.3750295418502438e-02  9.3402999633632314e-02  9.3070513654616341e-02  9.2837944120192334e-02  9.2694819018009966e-02  9.3235240790690538e-02  9.3260484365054810e-02  9.3300114579801460e-02  9.3555327483504258e-02  9.3569463995786667e-02  6.2285134676481210e-02  6.2086343928246905e-02  6.2618775027696194e-02  6.7011401358916409e-02  6.6582922091524555e-02  6.7099109865224368e-02  6.6810264184502699e-02  4.1414684820730248e-02  4.2733169506655670e-02  4.2595750144962335e-02  5.5183720483254171e-02  5.4346845193771309e-02  5.3988689240895275e-02  5.5531690397272612e-02  9.1694507370973663e-02  9.1831753239507333e-02  9.1367570436943338e-02  9.0888117010008096e-02  9.1220118992412239e-02  9.1487205813357814e-02  9.1970011953520517e-02  9.2104025655267638e-02  9.1625104947902131e-02  9.2145125308747383e-02  9.1912704524805960e-02  9.2502926044907050e-02  9.2846436295177096e-02  9.2570529315494476e-02  9.2958842357261234e-02  9.3550710852535399e-02  9.3802191172729393e-02  9.3799479191558816e-02  9.3487170509599177e-02  9.3410508477026935e-02  9.3130367767466665e-02  1.9184281683432707e-02  1.9165700931766238e-02  1.8889760213003044e-02  1.6693381778911054e-02  1.6354789245680776e-02  1.6945190844798251e-02  3.4765678773763312e-02  3.4484656844276471e-02  3.3890486366522643e-02  3.5517459456547031e-02  3.5293336957342068e-02  3.1581571371532016e-02  3.1186229743180562e-02  3.0978908916684637e-02  3.0638127129119445e-02  3.9086702351622489e-02  3.9952897770256471e-02  3.9105943172513563e-02  3.9492202408464322e-02  3.2409452367643941e-02  3.2179784126078553e-02  3.2525310019876776e-02  3.4695326747539251e-02  3.3974655988133477e-02  3.3864512463954818e-02  3.5416456814068853e-02  3.5482082237678271e-02  3.6261008146823009e-02  3.5797086409001012e-02  3.5642142632422054e-02  3.6561873395059334e-02  3.6080499827859908e-02  3.6854076551504952e-02  3.6992288062293453e-02  2.6929215045358071e-02  2.7436540479339192e-02  2.8958225861254908e-02  1.8735712825542032e-03  1.9890954724260980e-03  9.9398602103736508e-04  9.3306825851947897e-02  9.3003416545733242e-02  9.3556529273932890e-02  9.3796924820968255e-02  9.4210447816422488e-02  9.4140438200641885e-02  9.4254546228423136e-02  9.4085641388440999e-02  9.4004408982792026e-02  9.3998395419636671e-02  9.3230964142315340e-02  9.3602193668278724e-02  9.3422014399057174e-02  9.3573254212864790e-02  9.3198092127061524e-02  9.3765538392604625e-02  9.3399778089861829e-02  9.3785028511725127e-02  9.3539101519487133e-02  9.3488891784505243e-02  9.3160742713467207e-02  8.9747426517207976e-02  9.0072650294035092e-02  8.9939383701916398e-02  8.8025717499106704e-02  8.8068886919637046e-02  8.8554162685799770e-02  9.2848213101686256e-02  9.2049957817396388e-02  9.2497462802749189e-02  9.2356468966295291e-02  9.2589487826485808e-02  9.2234827659289975e-02  1.6055752026249655e-02  1.5992181747758284e-02  1.5919981675561821e-02  1.6092884494048002e-02  3.4803239649864044e-02  3.5918533159640102e-02  3.3655619100085708e-02  6.2296796024637439e-02  6.2600264871980060e-02  6.2267471723306773e-02  6.0001584892415930e-02  6.0081897494828618e-02  5.9626320981608666e-02  5.7261704853650182e-02  5.7152803386418816e-02  5.8008374599251969e-02  5.8697317520957630e-02  5.8721394160845458e-02  5.7874709442826994e-02  5.6902037844545235e-02  5.8546937539653704e-02  5.9169154091990132e-02  5.8284488810004198e-02  5.8915969886683371e-02  1.6836903272528896e-02  1.7353433815638610e-02  1.6990369487632776e-02  1.7491773330497472e-02  8.2148568585291820e-02  8.1504033937642426e-02  8.1488263002436001e-02  8.0862589511954214e-02  5.7910617465968289e-02  5.3198574186005126e-02  5.1508019617776513e-02  5.2383214044472715e-02  5.2378605092976968e-02  5.6147051380589598e-02  7.0111363593203843e-02  7.0641826420600060e-02  7.0887050628560197e-02  6.8175631336692077e-02  6.8556443582881751e-02  6.9436870448721141e-02  6.9861754543965482e-02  6.8973427833287540e-02  7.1116116356827852e-02  7.0650132060855922e-02  6.7196966779357617e-02  6.6282228161425760e-02  6.6011243023969754e-02  6.5805792823479689e-02  6.6341006861496285e-02  6.5689307259069837e-02  6.5272227179145451e-02  6.4911375662030313e-02  6.5586920823694120e-02  6.4831282635511495e-02  6.4536210119404719e-02  6.7521497245667153e-02  5.2752573518170608e-02  5.3596084284374963e-02  4.2981144762343597e-02  4.3754001663032470e-02  4.4067665130466525e-02  4.4823030202491614e-02  4.5168468424536375e-02  3.9910513026333895e-02  3.9174405427490969e-02  3.8297948064052470e-02  4.3945073457672464e-02  4.4896099224482150e-02  4.2803878293989447e-02  4.3507830836774807e-02  4.2218123246152255e-02  4.1580198257258082e-02  5.3181046407041584e-02  5.4384699135386738e-02  5.2756326724598263e-02  5.0936804284729076e-02  5.2182060697115305e-02  5.4620054093810759e-02  5.4801827847204714e-02  5.5820511497360288e-02  5.6684556187406004e-02  6.4193899132869145e-02  6.2696263399880908e-02  6.1940796980576730e-02  9.1547971020589397e-02  9.1178675716675359e-02  9.0838181227587897e-02  9.0444822941576214e-02  9.0727655616507447e-02  9.2421231934658718e-02  9.2552678460284352e-02  9.2284721153887708e-02  9.2237850924622583e-02  9.4205390971679431e-02  9.4159381489131999e-02  9.4113705612556997e-02  9.4276231816760911e-02  9.2990096957894536e-02  9.3197240485492175e-02  9.2853040970360984e-02  9.2801236649450586e-02  8.9817318871533963e-02  8.9521037690341976e-02  8.9525314048384430e-02  9.3011018677677387e-02  9.2049251367613161e-02  9.1524544814025083e-02  9.1831201316368849e-02  9.1710519621433867e-02  9.2239923751235783e-02  9.1012040919937282e-02  9.0505344497593399e-02  9.0849605976788261e-02  1.5704361334087487e-02  1.5408727258397599e-02  1.5628195752223673e-02  1.7165943811915052e-02  1.6898196130183660e-02  1.7355110940747247e-02  2.0752917190315124e-02  2.1465111797008003e-02  2.1329164421371782e-02  1.9024713492143880e-02  1.8474363922525758e-02  1.9371916958654381e-02  1.8789567405474890e-02  1.7981688325165755e-02  1.7901378180858511e-02  1.7386671887874572e-02  1.8084676025685555e-02  1.7671751504317108e-02  1.8282135145522863e-02  1.7892471668837416e-02  1.6740017183722450e-02  1.7236895135100332e-02  1.7711607746361626e-02  1.8404197878993743e-02  1.9077950799352889e-02  1.8459891324957959e-02  1.7213092953404598e-02  3.6902968209781867e-02  3.7481088480973250e-02  3.7661323355577647e-02  3.6026963008219309e-02  3.5962048981525253e-02  3.6592463343132792e-02  3.6252657099644980e-02  3.2614861546331163e-02  3.2444412703326007e-02  3.3199996318031076e-02  3.3337646216708920e-02  3.1758459398396562e-02  3.0385585993918114e-02  3.0469285966411346e-02  3.0528544954934456e-02  3.0470241164039631e-02  3.8419861308535398e-02  3.3875880363566986e-02  3.4553131223111544e-02  3.4194189838332244e-02  3.3396140145798177e-02  3.3850712712062782e-02  3.2801769154095863e-02  3.3329372005790087e-02  3.3364800943206770e-02  3.2839426986768235e-02  3.3642678166234133e-02  3.4000129557027935e-02  3.3075260902160925e-02  3.6729054682061557e-02  3.6960365732609121e-02  3.7723010860501588e-02  3.7789514703321231e-02  3.4735057782894520e-02  3.3047565982618439e-02  3.2330105003757534e-02  3.4021413192522429e-02  3.4782219948695750e-02  3.4103891916750582e-02  3.4199930631042118e-02  3.3466218431389423e-02  3.4570953979165112e-02  3.5301781399984557e-02  3.4424496084239309e-02  3.6199738962939938e-02  3.4310675710372163e-02  3.3626149035528984e-02  3.5043320961246641e-02  3.4497576004126326e-02  3.6387496100691426e-02  3.6710959508274230e-02  3.5163828069282199e-02  3.1028498601286848e-02  3.0660772439482807e-02  3.1293719332544379e-02  3.1010419148070983e-02  2.9574293521746627e-02  2.9653521581014544e-02  2.9784087026492198e-02  2.9762320746760274e-02  3.5223212582474808e-02  3.5119415669668703e-02  3.5431277924511069e-02  3.4793726427605913e-02  3.4898506745653673e-02  3.4477540292377463e-02  3.4471095853604097e-02  3.4345699924336032e-02  3.4607940924259256e-02  3.4423467712121188e-02  3.9292891846152520e-02  3.9418772725504307e-02  3.8966915585452594e-02  3.9687086716831924e-02  3.9561637582747576e-02  3.7411616569491407e-02  3.6842338079054252e-02  3.6707715265443079e-02  3.4030541008988509e-02  3.3644309128015228e-02  3.4533085724649894e-02  3.1658785699807089e-02  3.2457416447096328e-02  3.1957986093485991e-02  2.5582603393942416e-02  2.7485479605323312e-02  2.6746832632446961e-02  2.4682641170165481e-02  2.5987300691390991e-02  2.7995317031316351e-02  2.5125368033131652e-03  3.7306571238393486e-03  3.2201882362162572e-03  3.2420453809209743e-03  2.1244148831589781e-03  8.0697394024797225e-03  7.5210914228316453e-03  6.5340244038554155e-03  3.7105875712415068e-02  3.8216456633726872e-02  3.9351167155438446e-02  4.5933797843874045e-02  4.4898798768682545e-02  4.6915363983956772e-02  4.5899147431236798e-02  5.3412213970698869e-02  5.1654722360232087e-02  5.2717965266918181e-02  8.9421207795036400e-02  8.9193754158112468e-02  8.9075571460093192e-02  3.4636500275806337e-02  3.5659964071052097e-02  3.6623459964270182e-02  3.1027753615780484e-02  3.2156221868602661e-02  3.0337486373405852e-02  2.8512768648769369e-02  2.9727445994787372e-02  2.6353394463296684e-02  2.4417791385274727e-02  2.5343413336543830e-02  2.3459483535280254e-02  3.1375975137490707e-02  3.0969510921025588e-02  3.2365571123592694e-02  3.1690649571584829e-02  3.0433230562224044e-02  3.0667671604252007e-02  3.1906758534412070e-02  3.3192946470454184e-02  3.2008390710279756e-02  2.9456824116054662e-02  3.0325072709889024e-02  3.1113948791137477e-02  2.8960549239150084e-02  3.1370510239860656e-02  2.9943661963024639e-02  3.1766963530254926e-02  3.3386473560269823e-02  3.2379224927726567e-02  3.2718957623827108e-02  2.1547770305101265e-02  2.0597857057098989e-02  1.9178930232602868e-02  1.8250643879119385e-02  2.5186046314833076e-02  2.3823325942652233e-02  1.9840242315620288e-02  2.2175215476547428e-02  2.5303737008404468e-02  2.9502493378573750e-02  3.3167060996911434e-02  3.4352239213604849e-02  3.2686585845079927e-02  3.1417591890971396e-02  3.0436376981173414e-02  3.8819904309250232e-04  5.4335928198753596e-04  1.1110784999017378e-03  6.8861308759941495e-04  1.6842592393893196e-03  1.4130101309402180e-03  1.0726707327148987e-03  3.2453872979413753e-04  7.4750428634363930e-04  9.3999818952818129e-02  9.4305852485598640e-02  9.4289799346050349e-02  9.4225206776754250e-02  9.3891695240462883e-02  9.4131974137080188e-02  9.4047856034856159e-02  9.3642215128961079e-02  9.3827996286518570e-02  9.3926701542485391e-02  9.3942889456234802e-02  9.3779613493124275e-02  9.0133603456016925e-02  9.0409017305029829e-02  9.0459343632605368e-02  9.0118334960561985e-02  9.0104512902115561e-02  9.0248797532436989e-02  8.9827046546103781e-02  8.9920827545454649e-02  8.9468102011328224e-02  8.9513980689164205e-02  8.7500661158692400e-02  8.8853239139779092e-02  8.8731707177985217e-02  8.9357985845712140e-02  8.8635434013245626e-02  8.8112841099857259e-02  9.2964074252983392e-02  9.2454224836443000e-02  6.7756223368847193e-02  6.7949494006128097e-02  6.8929795488881840e-02  6.8495038651660956e-02  6.8779839414884247e-02  7.2527070608841532e-02  7.4688348643536934e-02  7.4373224648208600e-02  7.3743866711014822e-02  7.2599301722345438e-02  7.4182646092054425e-02  3.9286262840844986e-02  3.7673799184003612e-02  3.8405135441805370e-02  1.9306694617442142e-02  4.2905159134034442e-02  4.3580258288292886e-02  4.4517252884036761e-02  1.6062514127623072e-02  1.6685620107708462e-02  1.6426949780844607e-02  1.6480698248380336e-02  1.6427851863646252e-02  5.4858273011246544e-02  5.5654002863332601e-02  5.4596330240477255e-02  5.5934437049922327e-02  5.6159636122119744e-02  5.4883252316648326e-02  5.5729204113879202e-02  4.6027227421142076e-02  4.7743187787288692e-02  4.6162132324649059e-02  4.9349209055777159e-02  4.9276809420380811e-02  4.7861350717723600e-02  5.4152860976980084e-02  5.5356509750592350e-02  5.4505393474870628e-02  5.3696575744282340e-02  5.2415488764060492e-02  5.2326566845607284e-02  5.3510272581490000e-02  5.1161163446274867e-02  5.1691197580653860e-02  5.0022631396163524e-02  4.8203356865176405e-02  4.8726263164459355e-02  4.6864113124513135e-02  5.0389110595541166e-02  5.0483506545523381e-02  4.9342238513030517e-02  4.6268547241227420e-02  4.8412731877452216e-02  2.2967354757637108e-02  2.0942320169505153e-02  2.1790114486645584e-02  3.7311916310714122e-02  3.8384821761128271e-02  3.9513960024315502e-02  3.8279569309959072e-02  1.9803049373104384e-02  1.8307813838842897e-02  2.0201589693395409e-02  1.7985848212222211e-02  1.9562425829235498e-02  2.1369193244700171e-02  4.3725609754363071e-02  4.5953336705350380e-02  4.3493018957908705e-02  4.1619700312525314e-02  4.4074054246502542e-02  3.7516990004808945e-02  3.7195351372994005e-02  3.5545951987874552e-02  4.1316760028291676e-02  3.9298230337952975e-02  2.2719276976885999e-02  2.0743367965054601e-02  2.2008427313674646e-02  2.1598845470083165e-02  2.3587959304915931e-02  2.4775905443198284e-02  1.7971578884839530e-02  1.9703598883290301e-02  1.8316620952845340e-02  2.0086850059400255e-02  2.0863612482261693e-02  1.9721016988439744e-02  1.8944658993257976e-02  2.0193797891604137e-02  6.1849268968075848e-02  5.7252423573729901e-02  5.7934252781425576e-02  5.7216030205567418e-02  5.6462511289753950e-02  5.8886606844186611e-02  5.8282048563048403e-02  5.8594894786360943e-02  6.0303189853953533e-02  5.9391781304495232e-02  5.8020201920693362e-02  6.1032434240704786e-02  6.0522400729319602e-02  6.0466879547450142e-02  5.9908519061899639e-02  5.8563821657869677e-02  5.7441066006961521e-02  5.7163217456303941e-02  5.5727182247324453e-02  5.6613540454513687e-02  6.1494836251105266e-02  6.1506729557103124e-02  5.7611223223010766e-02  5.9326673929963353e-02  1.7152861470492206e-02  8.0158309848844256e-02  8.0800468113237281e-02  8.0167557676344259e-02  7.8858178058386394e-02  7.8887984352771015e-02  7.9455737166234996e-02  7.9579503926553954e-02  8.3831893726762155e-02  8.3713236836490512e-02  8.4481594486816913e-02  8.4598693627349189e-02  8.3962794617677597e-02  8.3175364888099179e-02  8.5812681286043010e-02  8.5707819411479966e-02  8.6382984561250917e-02  8.5107115195360281e-02  8.6289530333240785e-02  8.5622111409682705e-02  8.6938180472192206e-02  8.7043130654870543e-02  5.0640505743868497e-02  4.9761084170110166e-02  4.8785879712453954e-02  5.3985302801829310e-02  5.3182855769936491e-02  5.4749899398030807e-02  5.5521008913332427e-02  5.6162024051490886e-02  5.4008886826717728e-02  5.4995696810883933e-02  5.3668726719473078e-02  5.4509524824483874e-02  3.3260641222897520e-02  3.2380162085099959e-02  3.4265191323452966e-02  4.2893324452131509e-02  4.4257370347816578e-02  4.4910366853433283e-02  7.1331210835114997e-02  7.2014618229406385e-02  7.1368955911423865e-02  7.0557489417154243e-02  7.0839208874067000e-02  7.0055701290856767e-02  7.0840896669836770e-02  7.1147174907154012e-02  7.0347784818838091e-02  6.5442989244204802e-02  6.4962335924593481e-02  6.5154367311157951e-02  6.5627717739950672e-02  6.5913397451213454e-02  6.5826379805360297e-02  6.6153696615348173e-02  6.6433112149866996e-02  6.7388311327026135e-02  6.7635088409766161e-02  6.8048987332877203e-02  6.8467932769577897e-02  6.8179602475596471e-02  6.7555192366041725e-02  6.7356317742668745e-02  6.8031477763521614e-02  7.5795388088329307e-02  7.4885366086253860e-02  7.5403354062076447e-02  7.4409339749704359e-02  6.1507368497316854e-02  6.1565157110892312e-02  6.0161939195732039e-02  6.1522035119773867e-02  6.2881675683661556e-02  7.1657225144153958e-02  6.9046061202421793e-02  6.7846512440825124e-02  6.4110771408446107e-02  6.2831031262469195e-02  6.3100383623133513e-02  6.4403151171807754e-02  6.2961010410251775e-02  6.4230684979144276e-02  6.5566104389401164e-02  6.6898163894731980e-02  6.6610013394214684e-02  6.5821586492049888e-02  6.7566960719875405e-02  6.2842009934764298e-02  6.2895044180446225e-02  6.1922230539110557e-02  3.2308059523402578e-02  3.3604854866189547e-02  3.0969983631685065e-02  6.3750378286175705e-02  6.3450513960376001e-02  6.5262222456249741e-02  6.6683701182198268e-02  4.7266218462494458e-02  4.7510856031802391e-02  4.6240889311270232e-02  4.6972480771876511e-02  4.8180710490194220e-02  5.1874110001890086e-02  5.3462752325257594e-02  4.9943453332223310e-02  4.9417498339484348e-02  5.0416534476967194e-02  5.3061618425931420e-02  4.9429137448985083e-02  4.8509521097420794e-02  4.9044829118505294e-02  5.1434263327401961e-02  5.2377679365223029e-02  4.0354336002426411e-02  4.0963048727128047e-02  4.1398136670292560e-02  4.1606692083296225e-02  4.2095610931776627e-02  4.2657369829782195e-02  4.3234073597693504e-02  4.4369666485932664e-02  4.3687178258806296e-02  4.4819354423894391e-02  4.4374682927409703e-02  4.5498475393784932e-02  4.1603450901801002e-02  4.0626138874132231e-02  3.4402588046846164e-02  3.5767272951664777e-02  3.5171372823737355e-02  3.3812513114472476e-02  4.2751320741355361e-02  4.1003372867240817e-02  4.1459805995598051e-02  3.4505680289862430e-02  3.6493829712817394e-02  3.5427956398318194e-02  3.7348887665588956e-02  3.5478772338385041e-02  3.9767858786665146e-02  3.7046882458084671e-02  3.6253997813621139e-02  3.7486458696330306e-02  4.1198703687600723e-02  3.8371386850420179e-02  4.0733170571222804e-02  5.4848914129514634e-02  5.3597942965331137e-02  5.3970113974800712e-02  5.5534050615435246e-02  5.5099916923314209e-02  3.2240037439090936e-02  3.4883882514253228e-02  5.6653111334623925e-02  5.6942795043120421e-02  5.6244974923832472e-02  6.0010249258923704e-02  6.0095240031486252e-02  5.9164583366983513e-02  6.3234975952619385e-02  6.2608410327035624e-02  6.2426957340425845e-02  5.3520995202069502e-02  5.6944402868715632e-02  5.6013026260502287e-02  5.7108932948754201e-02  6.2927614379494165e-02  6.3188024967531592e-02  6.1643725368715561e-02  6.0973231816510647e-02  6.1465163257405614e-02  9.0221658039778815e-02  9.0021902062613027e-02  8.9691226682829639e-02  8.9871773269733224e-02  8.9587983224955869e-02  9.3846082621448085e-02  9.3966844634102376e-02  9.3995832647490798e-02  9.4127874892803304e-02  9.3717651560396104e-02  9.3872245821482500e-02  9.3236773767845282e-02  8.6947989781514898e-02  8.7100875509662223e-02  8.6452826741630975e-02  8.7563626005369932e-02  8.8013317783032591e-02  8.8445574709304198e-02  8.8568166002947132e-02  9.0075710893639235e-02  9.0198166293245133e-02  8.9702649006535587e-02  8.9548932914266396e-02  8.9180917764617798e-02  8.9016526125422032e-02  8.9934715980311691e-02  8.9351776167911789e-02  8.8641843662815661e-02  8.8075974474298407e-02  8.8465324372436427e-02  8.5776128149169725e-02  8.6305242292560577e-02  8.6817306629215996e-02  9.1118920353709998e-02  9.1253539294690281e-02  9.2429402411305928e-02  7.7602484168267705e-02  7.6584981524982720e-02  7.6751126415000440e-02  7.7695464730122871e-02  8.9465280335072436e-02  8.9170601047632303e-02  8.9650037634997376e-02  8.9354886957421428e-02  8.9193969336927539e-02  8.9966586986881744e-02  9.0061884372749285e-02  8.8276436543043457e-02  8.7686176525344231e-02  8.7287562126099880e-02  8.6864074936686991e-02  8.6603230296492639e-02  8.8892106272509902e-02  8.8702649990971397e-02  8.8490120224483854e-02  8.8148563117516163e-02  9.1561923559528524e-02  9.2025935985835000e-02  9.1607455738556068e-02  9.1191478444947863e-02  9.1618536180011534e-02  9.1594412829163668e-02  9.1338524598805315e-02  9.1797496288104810e-02  9.0772141829627298e-02  9.0813450045160532e-02  9.0668936014154988e-02  9.1488274741344092e-02  9.2076987809353208e-02  9.0496652704928848e-02  9.0677387299986673e-02  9.0908414666846793e-02  9.0379352797343340e-02  9.2746590471061999e-02  9.2928033698461851e-02  9.2546769605173274e-02  9.1168787349405797e-02  9.1325364291212532e-02  9.0766701883872272e-02  1.5411712857796904e-02  1.546321169