<?xml version="1.0"?>
<VTKFile type="UnstructuredGrid"  version="0.1"  >
<UnstructuredGrid>
<Piece  NumberOfPoints="6340" NumberOfCells="12376">
<Points>
<DataArray  type="Float64"  NumberOfComponents="3"  format="ascii">-0.01946100033819675 0.02083900012075901 0  -0.02025300078094006 0.02151699922978878 0  -0.02044999971985817 0.02051999978721142 0  -0.02113199979066849 0.02133199945092201 0  -0.0196749996393919 0.01992099918425083 0  -0.01932400092482567 0.02171400003135204 0  -0.01991900056600571 0.02247600071132183 0  -0.01943599991500378 0.02327900007367134 0  -0.02050299942493439 0.02328299917280674 0  -0.01884900033473969 0.0224360004067421 0  -0.008173000067472458 0.01854700036346912 0  -0.008814999833703041 0.01935799978673458 0  -0.009139999747276306 0.01842099986970425 0  -0.009789000265300274 0.0192709993571043 0  -0.02644499950110912 0.07996699959039688 0  -0.02741000056266785 0.08055700361728668 0  -0.0275689996778965 0.07976999878883362 0  -0.02714899927377701 0.07316099852323532 0  -0.02775100059807301 0.07402700185775757 0  -0.02799299918115139 0.07310999929904938 0  -0.02872000075876713 0.07368999719619751 0  -0.01296900026500225 0.09029799699783325 0  -0.01396000012755394 0.09027300029993057 0  -0.01341299992054701 0.0894320011138916 0  -0.02064700052142143 0.08516000211238861 0  -0.01964100077748299 0.08516599982976913 0  -0.02019399963319302 0.08599299937486649 0  -0.02009600028395653 0.08433099836111069 0  -0.02256900072097778 0.02499699965119362 0  -0.02154899947345257 0.02497499994933605 0  -0.02205800078809261 0.02586299926042557 0  -0.02251799963414669 0.02675300091505051 0  -0.02309799939393997 0.0258990004658699 0  -0.02102899923920631 0.02584500052034855 0  -0.02052300050854683 0.02497000060975552 0  -0.01948600076138973 0.0249669998884201 0  -0.02000500075519085 0.02583399973809719 0  -0.02205299958586693 0.02408700063824654 0  -0.02317400090396404 0.02417699992656708 0  -0.02239000052213669 0.02283000014722347 0  -0.02177900075912476 0.02210200019180775 0  -0.02152800001204014 0.0231929998844862 0  -0.02088899910449982 0.0223619993776083 0  -0.0159670002758503 0.02214699983596802 0  -0.0164790004491806 0.0212629996240139 0  -0.01544999983161688 0.02128900028765202 0  -0.0169259998947382 0.02222100086510181 0  -0.01793199963867664 0.02223699912428856 0  -0.01743699982762337 0.02311399951577187 0  0.04360299929976463 0.08390200138092041 0  0.04326499998569489 0.08298099786043167 0  0.04461200162768364 0.08330900222063065 0  0.04636700078845024 0.0956140011548996 0  0.04718900099396706 0.09602300077676773 0  0.04614099860191345 0.09651400148868561 0  0.02927299961447716 0.104423001408577 0  0.02935599908232689 0.1034779995679855 0  0.03030399978160858 0.1039389967918396 0  0.02832500077784061 0.1048669964075089 0  0.02838099934160709 0.1037210002541542 0  -0.00508200004696846 0.09940700232982635 0  -0.004021999891847372 0.09943199902772903 0  -0.004567999858409166 0.1002930030226707 0  -0.003504999913275242 0.1003139987587929 0  -0.01795700006186962 0.1003860011696815 0  -0.01844000071287155 0.09962800145149231 0  -0.01725899986922741 0.09975899755954742 0  -0.01898599974811077 0.1005769968032837 0  -0.01293400023132563 0.1069860011339188 0  -0.01306799985468388 0.1079370006918907 0  -0.01384500041604042 0.1071320027112961 0  -0.009762000292539597 0.09833300113677979 0  -0.008721999824047089 0.09838300198316574 0  -0.00926900003105402 0.09924200177192688 0  -0.01079799979925156 0.09827499836683273 0  -0.01025000028312206 0.09741699695587158 0  -0.01128599978983402 0.09735900163650513 0  -0.01347899995744228 0.1007369980216026 0  -0.01398499961942434 0.1015599966049194 0  -0.01454699970781803 0.1006660014390945 0  -0.01238800026476383 0.09906599670648575 0  -0.01343000028282404 0.09901399910449982 0  -0.01286699995398521 0.09816599637269974 0  0.01366900000721216 0.09492500126361847 0  0.01471200026571751 0.09492100030183792 0  0.01418999955058098 0.0957769975066185 0  0.007965999655425549 0.07869499921798706 0  0.008453999646008015 0.07782600075006485 0  0.009007999673485756 0.07868999987840652 0  -0.007899999618530273 0.01768999919295311 0  -0.007110000122338533 0.01793099939823151 0  -0.008737999945878983 0.0175429992377758 0  -0.009611999616026878 0.01738899946212769 0  -0.0131400004029274 0.01720000058412552 0  -0.01338499970734119 0.01826000027358532 0  -0.01398899964988232 0.01736100018024445 0  -0.01258299965411425 0.0181060004979372 0  -0.01259899977594614 0.01911799982190132 0  -0.01178700011223555 0.01830700039863586 0  -0.01212800014764071 0.02201900072395802 0  -0.01260800007730722 0.02106199972331524 0  -0.01168899983167648 0.02113400027155876 0  -0.01124699972569942 0.020304000005126 0  -0.0107049997895956 0.02115399949252605 0  -0.01216499973088503 0.02013500034809113 0  -0.01306299958378077 0.02200300060212612 0  -0.01447600033134222 0.02119299955666065 0  -0.01496700011193752 0.02212899923324585 0  -0.01400199998170137 0.02205399982631207 0  -0.009285000152885914 0.02022100053727627 0  -0.01099599990993738 0.03092099912464619 0  -0.01149799954146147 0.03004799969494343 0  -0.01052000001072884 0.03002900071442127 0  -0.005683999974280596 0.02988599985837936 0  -0.006149000022560358 0.03078900091350079 0  -0.006645000074058771 0.02991900034248829 0  -0.008353999815881252 0.02031799964606762 0  -0.005962000228464603 0.01985399983823299 0  -0.006907999981194735 0.01966400071978569 0  -0.006167999934405088 0.01901400089263916 0  -0.006256000138819218 0.01819200068712234 0  -0.005309999920427799 0.01847999915480614 0  0.04809900000691414 0.09160900115966797 0  0.04898500069975853 0.09116300195455551 0  0.04872699826955795 0.09229400008916855 0  0.0476440005004406 0.09239400178194046 0  0.01637299917638302 0.05926600098609924 0  0.01741000078618526 0.05919700115919113 0  0.01693399995565414 0.06007499992847443 0  0.03005599975585938 0.04467900097370148 0  0.03052799962460995 0.04364399984478951 0  0.03101100027561188 0.04438100010156631 0  0.03229000046849251 0.04892199859023094 0  0.03321599960327148 0.04827700182795525 0  0.03359000012278557 0.04903599992394447 0  0.03211800009012222 0.05237999930977821 0  0.03113400004804134 0.05242500081658363 0  0.0316619984805584 0.05150400102138519 0  0.03118900023400784 0.05066800117492676 0  0.03223399817943573 0.05058800056576729 0  0.03064600005745888 0.05157399922609329 0  0.03012700006365776 0.05248299986124039 0  0.03012700006365776 0.05076099932193756 0  0.02955600060522556 0.04997599869966507 0  0.02906399965286255 0.05084399878978729 0  0.0284850001335144 0.050050999969244 0  0.04560099914669991 0.09395500272512436 0  0.04452000185847282 0.09396100044250488 0  0.04505600035190582 0.09311900287866592 0  0.04399500042200089 0.09309399873018265 0  0.007772000040858984 0.02513499930500984 0  0.008559999987483025 0.02559199929237366 0  0.007788000162690878 0.02619200013577938 0  0.00864499993622303 0.02654499933123589 0  0.02800399996340275 0.05091999843716621 0  0.02388699911534786 0.05286600068211555 0  0.02340999990701675 0.05374199897050858 0  0.02283499948680401 0.05292800068855286 0  0.02445800043642521 0.05367999896407127 0  0.03064600005745888 0.05333700031042099 0  0.01910299994051456 0.03602100163698196 0  0.01819800026714802 0.03587799891829491 0  0.01862199977040291 0.03499900177121162 0  0.01350000035017729 0.04117999970912933 0  0.01252700015902519 0.04117999970912933 0  0.0130019998177886 0.04030200093984604 0  0.01202800031751394 0.04030299931764603 0  0.0115520004183054 0.04117900133132935 0  0.01152699999511242 0.03942700102925301 0  0.01250400021672249 0.03942599892616272 0  0.0130249997600913 0.04205799847841263 0  -0.02856099978089333 0.074583999812603 0  -0.02742799930274487 0.07486200332641602 0  -0.02841500006616116 0.07540100067853928 0  -0.02676500007510185 0.07406499981880188 0  -0.02634000033140182 0.07489600032567978 0  -0.02528499998152256 0.07493600249290466 0  -0.02574300020933151 0.07575900107622147 0  -0.02472599968314171 0.0741180032491684 0  -0.02425099909305573 0.07496099919080734 0  -0.02474899962544441 0.07578600198030472 0  -0.02884599938988686 0.07275799661874771 0  -0.0197330005466938 0.0868230015039444 0  -0.02074399963021278 0.08681599795818329 0  -0.01875299960374832 0.09617000073194504 0  -0.01975199952721596 0.09618700295686722 0  -0.0192050002515316 0.09532699733972549 0  -0.02019999921321869 0.09534800052642822 0  -0.01965299993753433 0.09448300302028656 0  -0.01750599965453148 0.09890700131654739 0  -0.01653400063514709 0.09892699867486954 0  -0.01616599969565868 0.09979400038719177 0  -0.01440099999308586 0.08941099792718887 0  -0.01197899971157312 0.08271799981594086 0  -0.01097699999809265 0.08272500336170197 0  -0.01152599975466728 0.08355499804019928 0  -0.01108300033956766 0.0843999981880188 0  -0.01053099986165762 0.08356700092554092 0  -0.01591300033032894 0.08101300150156021 0  -0.01637900061905384 0.08017200231552124 0  -0.01537500042468309 0.08018200099468231 0  -0.01436999998986721 0.0801910012960434 0  -0.01483399979770184 0.07934899628162384 0  -0.01909199915826321 0.08433700352907181 0  -0.01854700036346912 0.08350499719381332 0  -0.01955300010740757 0.08349700272083282 0  -0.02056100033223629 0.0834909975528717 0  -0.02528299950063229 0.07661899924278259 0  -0.0258019994944334 0.07914400100708008 0  -0.02538900077342987 0.07997900247573853 0  -0.02358799986541271 0.02489000000059605 0  -0.02398999966681004 0.02558000013232231 0  -0.02429299987852573 0.0262839999049902 0  -0.02461900003254414 0.02704199962317944 0  -0.02352599985897541 0.02683299966156483 0  -0.01999299973249435 0.02411999925971031 0  -0.01894699968397617 0.02410499937832355 0  -0.02104300074279308 0.02410399913787842 0  -0.02277000062167645 0.02348300069570541 0  -0.01741800084710121 0.01843499951064587 0  -0.01703999936580658 0.01920000091195107 0  -0.01820000074803829 0.01878000050783157 0  -0.01661700010299683 0.01808100007474422 0  -0.01839900016784668 0.02323400042951107 0  -0.0164400003850
[...]
<PointData  Scalars="pressure"> 
<DataArray  type="Float64"  Name="pressure"  format="ascii">4.2954076798929826e-02  4.3117595084434301e-02  4.3016294845934548e-02  4.3177684787526920e-02  4.2864628713718739e-02  4.3049931425815403e-02  4.3217382604006149e-02  4.3307971842545381e-02  4.3388710790863344e-02  4.3115455821833480e-02  4.0701920942442675e-02  4.0946168595381603e-02  4.0814174427919722e-02  4.1090017463280171e-02  5.5101866551842744e-02  5.5205767022643043e-02  5.5116250202813952e-02  5.4141258197753672e-02  5.4285518322429852e-02  5.4041500587674748e-02  5.4142348177887843e-02  4.8712657872069770e-02  4.9941953122944603e-02  5.0022344129991798e-02  5.5147006752996962e-02  5.5006822882355304e-02  5.5082620832671868e-02  5.5034647093205949e-02  4.3783743383690607e-02  4.3727829958360290e-02  4.3898467177084968e-02  4.4061003144275822e-02  4.3945654351156230e-02  4.3855682215267804e-02  4.3676289552116963e-02  4.3628107913142103e-02  4.3821278726331563e-02  4.3614491372569314e-02  4.3710703434287214e-02  4.3483918590202134e-02  4.3335674049176619e-02  4.3447949880456548e-02  4.3284924136597479e-02  4.2768331176644012e-02  4.2657263900861060e-02  4.2528391331933063e-02  4.2887586958497648e-02  4.2993281942041078e-02  4.3116504169576221e-02  5.0054615998064877e-02  4.9826187361855304e-02  5.1830733815831309e-02  5.1454856907915000e-02  5.1156217415290313e-02  5.1447945421475620e-02  6.3959374392999424e-02  6.3513937235307405e-02  6.3231301875849202e-02  6.4555849023234038e-02  6.4062386473960675e-02  3.4340407189286312e-02  3.4940418411782137e-02  3.5606350447235799e-02  3.6403783278594476e-02  4.5094374816296572e-02  4.5841711739555424e-02  4.4638933784178950e-02  4.5901094085289335e-02  4.1564703506006551e-02  4.2439633348357431e-02  4.2118862607881648e-02  3.5779319256156697e-02  3.4748157136054329e-02  3.5536157048052769e-02  3.7037699416913317e-02  3.6507846082563411e-02  3.7985746080603455e-02  4.0489115877000180e-02  4.0992387715873768e-02  4.1583614615687867e-02  3.9122549698207554e-02  4.0467983194705293e-02  3.9959279222476912e-02  4.8387026053769669e-02  5.0014739866067220e-02  5.1945354372820246e-02  2.7991451691036090e-04  5.9002991309312081e-04  3.8756974732179900e-04  4.0528592987099710e-02  4.0506029749774908e-02  4.0613084563056526e-02  4.0750501673598449e-02  4.1550906027506052e-02  4.1732611322284688e-02  4.1730781862571280e-02  4.1531977383909263e-02  4.1644431741760538e-02  4.1391185574898313e-02  4.2242614551464261e-02  4.2055824236526609e-02  4.1924385595236882e-02  4.1627465537455971e-02  4.1774824973037625e-02  4.1758084997950862e-02  4.2369829433689825e-02  4.2374635643199085e-02  4.2648271359269685e-02  4.2507868529446449e-02  4.1273715964288471e-02  4.5266405371446959e-02  4.4990752205202024e-02  4.4902348445717381e-02  4.4084664816427255e-02  4.4454743800302940e-02  4.4284004626568160e-02  4.1193964766448557e-02  4.1027833167418495e-02  4.0914735117262596e-02  4.0808499139560021e-02  4.0588149755771741e-02  4.0759117143501403e-02  5.1332582992478906e-02  5.2411839345721099e-02  5.1355348152420176e-02  5.1387440765004774e-02  2.3358718036225926e-02  2.4450964297283606e-02  2.2934345733446611e-02  4.0287796748216913e-02  4.0268280538074332e-02  4.0307611046274144e-02  4.0477157000211039e-02  4.0443487269982745e-02  4.0649646496989399e-02  3.9998809082876244e-02  3.9711468112604939e-02  4.0023370618149187e-02  4.0054300922621786e-02  4.0246167857233006e-02  3.9737376410908243e-02  3.9340349119576332e-02  3.9751799868737142e-02  3.9719611478984319e-02  3.9366717185930981e-02  3.9329397241549810e-02  5.1691891458468114e-02  5.1960883533000463e-02  5.1754050987925584e-02  5.1988552682817865e-02  4.1224856497615800e-02  4.1141315486353844e-02  4.1433637956691638e-02  4.1287834706272605e-02  3.8903645713779272e-02  3.5612637591186810e-02  3.4720240887380252e-02  3.4859697514918901e-02  3.5514367646396296e-02  3.9325420020858474e-02  4.0172745916579697e-02  4.0194903044989350e-02  4.0223739801633920e-02  3.8914212141463581e-02  3.8880557608634486e-02  3.9249895668905632e-02  3.9243412712037740e-02  3.8873713626247794e-02  3.9573290463262301e-02  3.9557207662478271e-02  3.8490341080526763e-02  5.4359331752725414e-02  5.4434098093616587e-02  5.4544394791339157e-02  5.4350936147405063e-02  5.4487850761578700e-02  5.4471636816386691e-02  5.4602540636824036e-02  5.4279312578631118e-02  5.4389551211659393e-02  5.4566421107329233e-02  5.3983283737939210e-02  5.4886807881859519e-02  5.5042541224503354e-02  4.8706042500459540e-02  4.9541798513078383e-02  4.9836475358098910e-02  5.0577776931959924e-02  5.0846487812660629e-02  4.5336889805914424e-02  4.4309023844618982e-02  4.3434752492046057e-02  5.1143118873186622e-02  4.6866050486515695e-02  4.4860119348253860e-02  4.6601725510279080e-02  4.6394085874923843e-02  4.4655170607190736e-02  5.1518658711128748e-02  5.1697551528975316e-02  5.0519561341383815e-02  4.9152683716452449e-02  4.9320758703448347e-02  5.4808896615802821e-02  5.4428579288851628e-02  5.4786080646793377e-02  5.5014500735481663e-02  5.4765641620989521e-02  5.5087308728614073e-02  5.5138585644315896e-02  4.3832699775888481e-02  4.3948533408091218e-02  4.4063547782480651e-02  4.4185083302688812e-02  4.4103919854025779e-02  4.3494358686192815e-02  4.3427940794358896e-02  4.3556407561765390e-02  4.3593454268655865e-02  4.2414785251822441e-02  4.2457107540712628e-02  4.2566424416284623e-02  4.2270135605217862e-02  4.3219634972587302e-02  4.3021016084380179e-02  4.3188454439614270e-02  4.3270658906551220e-02  4.5335262138031816e-02  4.5603920581339726e-02  4.5649761968473514e-02  4.2111802759606708e-02  4.2594632125493102e-02  4.2855782362110059e-02  4.2956128332554785e-02  4.2498985534257523e-02  4.2237578675517085e-02  4.3115208463703404e-02  4.3371104167612577e-02  4.3486366104784659e-02  5.1271735355623141e-02  5.1169468325332201e-02  5.0995446372599174e-02  5.1496362824052289e-02  5.1559548584703796e-02  5.1717784045421510e-02  5.1413366865848333e-02  5.1604506544103111e-02  5.1157159960506793e-02  5.1259905988709741e-02  5.2282277166251660e-02  5.2821346259586427e-02  5.2611201889652258e-02  5.2167692328353936e-02  5.1963829278287695e-02  5.1696365836571861e-02  5.2259900158304569e-02  5.1971384705962326e-02  5.2218168678995674e-02  5.1913242534872478e-02  5.1588143637120644e-02  5.1777544859090169e-02  5.2110318572675805e-02  5.2511682598845699e-02  5.2924844669708655e-02  5.2572836522245918e-02  5.1867003387239992e-02  6.5590562528296009e-02  6.5937147818082742e-02  6.5468400240961427e-02  6.4379052923120933e-02  6.4608925727094826e-02  6.4875050416246541e-02  6.5171404414621978e-02  3.4263753817773447e-02  3.5262288304366243e-02  3.4734503615613928e-02  3.3979221814716999e-02  3.3862850646645848e-02  4.2274032893812916e-02  4.0210821394951440e-02  4.2178037161235568e-02  3.7178141950374138e-02  4.4921280735705831e-02  4.1801217695538365e-02  4.2083875870573786e-02  4.1144584243543315e-02  4.2193382041943131e-02  4.1704244114566830e-02  4.1463325540103249e-02  4.1531818584011809e-02  4.1121740390639386e-02  4.0953809356135004e-02  3.6204270516873714e-02  3.7733124276346799e-02  3.6217054516614312e-02  3.9973971471011789e-02  3.9611877002665871e-02  4.1546079375255507e-02  4.1457820370167452e-02  3.5262867500912877e-02  3.5778645536620239e-02  3.6434873620309297e-02  4.0896963381243781e-02  4.0809349614424409e-02  4.0285563498894998e-02  3.9458033206310104e-02  3.9712839831733709e-02  3.6556178553734227e-02  3.7763432129828009e-02  3.7531329284534037e-02  3.8487046114534337e-02  3.8502412947046816e-02  3.7680050540180213e-02  3.9503167945754772e-02  4.1271457624195047e-02  4.1909669025636254e-02  4.1061166275226844e-02  3.8662074691138734e-02  5.0879231835749217e-02  4.9474828773591800e-02  5.0810888557105846e-02  4.9391931020442668e-02  4.5451614776592271e-02  4.4999697998483704e-02  4.6726810599344068e-02  4.7116717406090664e-02  5.8445496297599348e-02  5.8074890825227779e-02  5.9057959528403370e-02  5.7804404427837505e-02  5.7612147404393861e-02  5.6255935830393164e-02  5.7167692591177398e-02  5.6533408143466579e-02  5.6933183868192377e-02  5.6073459243577407e-02  6.5794489029812775e-02  6.5674963012250509e-02  6.6019344993817008e-02  6.5433215504053385e-02  6.5578640887235556e-02  6.1584150592224787e-02  6.0999536084064269e-02  6.0726842753438551e-02  5.6337773446697138e-02  5.5439317687977399e-02  5.6448477919564879e-02  5.0775666055981640e-02  5.2087605818240082e-02  5.2078847967721449e-02  4.9027395530384169e-02  5.2434414594642036e-02  5.0936636388328807e-02  4.7278927202077742e-02  4.9281299749968095e-02  5.2723044895171718e-02  1.0917085831242956e-03  1.4763845395929301e-03  1.7316337649230101e-03  1.0056586211725504e-03  1.5021690491813233e-03  7.3548070238179594e-03  7.8511439435738697e-03  6.3442873838156846e-03  2.5571036535250662e-02  2.5918844092702814e-02  2.6989066798587542e-02  3.3299504875634676e-02  3.2297402999055980e-02  3.3378441726294214e-02  3.2411081259886197e-02  3.4566577156775774e-02  3.3603535235027307e-02  3.3926793040302383e-02  4.5517884055069263e-02  4.5849844730887067e-02  4.5747512258877222e-02  1.9844186542818297e-02  2.0629433441635286e-02  2.1235344145215565e-02  1.7142424059234128e-02  1.8120345409335839e-02  1.6661223071899496e-02  1.5163784608740828e-02  1.6293384601280721e-02  5.0702045624880537e-02  4.7408885773553663e-02  4.8980462636521539e-02  4.5543584907509427e-02  3.3993927287352815e-02  3.3085515636101903e-02  3.3535754485698718e-02  3.4786633324751771e-02  3.4538127322203918e-02  3.5254604932733552e-02  3.5433882115492289e-02  3.5675562078952526e-02  3.5941060847658475e-02  3.8353334676442835e-02  3.6932437819217567e-02  3.8209716528276136e-02  3.7175959152586667e-02  5.3658255422061561e-02  5.2366594073306724e-02  5.4952072858121009e-02  5.3392770507054002e-02  5.1653845569203105e-02  5.2951314308333421e-02  4.1131406428215507e-02  3.8886351361871699e-02  3.6733130546624609e-02  3.4338547349065621e-02  4.7511203365699396e-02  4.5343538080626550e-02  3.6726352828393372e-02  4.1263173161554458e-02  4.6158353573321154e-02  5.3357365151397593e-02  5.8352530468569107e-02  5.9196917065589931e-02  5.7300152287073476e-02  5.6110987921288512e-02  5.3618465788404360e-02  4.1186942091564482e-04  8.7762212807518392e-04  7.6000447087075373e-05  1.1695939747620454e-04  0.0000000000000000e+00  8.6610998988531640e-04  4.8513969085573969e-03  3.0876069444614254e-03  3.7251373179724295e-03  4.2284097884137693e-02  4.2078324394773547e-02  4.1906559383113801e-02  4.2088371677273459e-02  4.1919106066463652e-02  4.1343266653985217e-02  4.1218205755373952e-02  4.1355494050778221e-02  4.1203064434183832e-02  4.1154815835306321e-02  4.0948993447463500e-02  4.0941285550259873e-02  4.5049035515015518e-02  4.4703521672022566e-02  4.4756691568935858e-02  4.5079405464688041e-02  4.4520975481761281e-02  4.4132167736699937e-02  4.4388370983698092e-02  4.4000042318557163e-02  4.4240846396586236e-02  4.3858793178252496e-02  4.4234756206719732e-02  4.2440620404399332e-02  4.2676376590328462e-02  4.2463307132613357e-02  4.2940191700472218e-02  4.2860037390120218e-02  4.0881657488034545e-02  4.1176362252768869e-02  5.3883317994534913e-02  5.3704970224896377e-02  5.3130377468824909e-02  5.3435532379678269e-02  5.3236434987395630e-02  4.1340543207939284e-02  4.2444986879942602e-02  4.2127746275215650e-02  4.2578190903638437e-02  4.2108091692559330e-02  4.2842271348827850e-02  3.9143006399081776e-02  3.8918582699258200e-02  3.7998198707141051e-02  5.0705839052027989e-02  3.9263060908378569e-02  3.8639330512219475e-02  3.9578863789363664e-02  5.1348559891625616e-02  5.1011740793588847e-02  5.2102996469448340e-02  5.1128328881457304e-02  5.2129852241865476e-02  4.0385165648705298e-02  4.0698846358593901e-02  4.0587028633388464e-02  4.0471370502410155e-02  4.0427857171111775e-02  4.0124487978647802e-02  4.0097365576711813e-02  3.7911981514320979e-02  3.8511039950839737e-02  3.8444822661951913e-02  3.9008421256499039e-02  3.8580213506280686e-02  3.9053216764556073e-02  3.8858228945167578e-02  3.9337718097544550e-02  3.9342810125623365e-02  3.9705598885516835e-02  3.9557555366471778e-02  3.9216871291408995e-02  3.9316978030776426e-02  3.7602400405037623e-02  3.8236446791240435e-02  3.7555131273144721e-02  3.6783541217023291e-02  3.7478648896015820e-02  3.6723599633220846e-02  3.9608865590674530e-02  3.9932570839404893e-02  3.9953757204775578e-02  3.9886042237894964e-02  4.0413739186769285e-02  1.7357055155143936e-02  1.5900433729671752e-02  1.5854012855337413e-02  2.7490933234553171e-02  2.7645250702876087e-02  2.8796758371702098e-02  2.6707548042586255e-02  9.1613164544227382e-03  7.9421768279469770e-03  9.0554591178700489e-03  8.1493393313168613e-03  9.4481208744026726e-03  1.0550117052905809e-02  2.6455239359827791e-02  2.7665453462845928e-02  2.6449393902385623e-02  2.5239245150292390e-02  2.6518237227174529e-02  2.2691892388378980e-02  2.2607613007427071e-02  2.1321850105243879e-02  2.5191612123345725e-02  2.3935264377034811e-02  1.4047278193316852e-02  1.2410473884266408e-02  1.3014705579670584e-02  1.3569806142389819e-02  1.5196458358121036e-02  1.5706623949027547e-02  9.1425625480064318e-03  1.0580233728213685e-02  9.9180441500422434e-03  3.4451577176864270e-02  3.6777250549378360e-02  3.4735067946814413e-02  1.4477612434155990e-02  1.6090906785371388e-02  4.0224575901771892e-02  4.0199272769906425e-02  4.0388947285322281e-02  4.0377371956302088e-02  3.9992171520312245e-02  4.0522255075535731e-02  4.0533896810023486e-02  4.0366115534360716e-02  4.0198260168173905e-02  4.0295478064584667e-02  4.0228660595365139e-02  4.0054937674716060e-02  4.0096755911894641e-02  3.9889010447204117e-02  3.9968021296031275e-02  3.8880199774311799e-02  3.8375566087119235e-02  3.6825785506138603e-02  3.6063615960437598e-02  3.6279096242545571e-02  4.0049491607213883e-02  4.0174745905260649e-02  3.9364810423667247e-02  4.0038190714178315e-02  5.1757498148103327e-02  4.1238128015886923e-02  4.1029073011740566e-02  4.0991681041775488e-02  4.0815505372686231e-02  4.1059994167144440e-02  4.0846995145550583e-02  4.1127535268617309e-02  4.2171932682404330e-02  4.2315892751384872e-02  4.2369848617417022e-02  4.2220785219184820e-02  4.2047273369535489e-02  4.1989981438104951e-02  4.2585540883320928e-02  4.2773216109227241e-02  4.2747164747110232e-02  4.2574509377942285e-02  4.2954212840144043e-02  4.2981871474070926e-02  4.2887706364139015e-02  4.2681878976462077e-02  3.4591325038606860e-02  3.4490622766991982e-02  3.3597391394075540e-02  3.7021306426035266e-02  3.6282045730309229e-02  3.7077580963416915e-02  3.7125316343419069e-02  3.7769408316372557e-02  3.6362410652861693e-02  3.8860968676891233e-02  3.8291528552641715e-02  3.8301308523322426e-02  3.0662474857560428e-02  2.9395737776798984e-02  3.0351162829399529e-02  3.5048517194369175e-02  3.5069019544822937e-02  3.5915712761530133e-02  4.0230902756760799e-02  4.0080363270633766e-02  4.0043125655104914e-02  4.0181029270393451e-02  4.0210788528409161e-02  4.0168518479240689e-02  4.0144303685260362e-02  4.0217556250293975e-02  4.0134595096820408e-02  4.0190627138852561e-02  4.0274432744975067e-02  4.0318107019015427e-02  4.0224833144511460e-02  4.0080664968317595e-02  4.0199868566102470e-02  4.0149112500262735e-02  4.0185007444630549e-02  3.9921643382289221e-02  4.0102063338867219e-02  4.0045398735252910e-02  3.9978904878149590e-02  4.0214577289989464e-02  4.0154115596413992e-02  4.0136773830816999e-02  4.0161011113632739e-02  4.0778139808243477e-02  4.0552435414162001e-02  4.0708259824663577e-02  4.0431407746836900e-02  3.6907152000188487e-02  3.7164033625551637e-02  3.6460977912774598e-02  3.6683912516599471e-02  3.7351919291405897e-02  4.0241950433321808e-02  3.9280761444668896e-02  3.8979651345370736e-02  3.7943990572052007e-02  3.7554539789092206e-02  3.7008849553881284e-02  3.7629561884732814e-02  3.7164123142147822e-02  3.7773491082369090e-02  3.8179394243872788e-02  3.8556372775587350e-02  3.8657395951683521e-02  3.8066427479157387e-02  3.8452885056935025e-02  5.3603845078191582e-02  5.3111201740345879e-02  5.3071079572986415e-02  2.3994013328211335e-02  2.5067482795856931e-02  2.2408757709236789e-02  5.4699512348213533e-02  5.4844638775957688e-02  5.4644732876740931e-02  5.4140170824944191e-02  5.2774254114147989e-02  5.3064839245888083e-02  5.2223467115630584e-02  5.2436672204061778e-02  5.3231514136478496e-02  5.1538579844083512e-02  5.2527302375615620e-02  5.3976545509796366e-02  5.3851660335532993e-02  5.4156881909026108e-02  5.4867318441214639e-02  5.3854221829267926e-02  5.3535123984561214e-02  5.3571170871047596e-02  5.4655204441922393e-02  5.4853082317675002e-02  4.6393227458662811e-02  4.6516247616678531e-02  4.7711284354247013e-02  4.7234256868216765e-02  4.8112073656813407e-02  4.8459250348619740e-02  4.9330041476838837e-02  5.0342169567759831e-02  5.0048733301755667e-02  5.1082652897712265e-02  5.0116638574395356e-02  5.1153833543205462e-02  4.8506710552190760e-02  4.6113088046821717e-02  4.0089646092606797e-02  4.1991845088521482e-02  4.1045919116877848e-02  3.9020514055068789e-02  4.7849394769161349e-02  4.6039646571455886e-02  4.7480039079975195e-02  3.6955945762189434e-02  3.9608071413208393e-02  3.7237743471967066e-02  4.1687938946032767e-02  3.9079527892361680e-02  4.5562585959224772e-02  4.3947802267472358e-02  4.2526176232846033e-02  4.4243239325400349e-02  4.8740145278770894e-02  4.2062094556996013e-02  4.2714553940036822e-02  5.3326728151097139e-02  5.3337866070601883e-02  5.0669899815337427e-02  5.1775710434377488e-02  5.0800555421966556e-02  2.3544546238426993e-02  2.6197891845310399e-02  5.1951821999539106e-02  5.2732612250762582e-02  5.0989036877413484e-02  5.4396383569867451e-02  5.3999448063161593e-02  5.3993165508143010e-02  5.4544949097645068e-02  5.4303101316778901e-02  5.4609278280407472e-02  5.4430503356326529e-02  5.4800518171342495e-02  5.4475492602065877e-02  5.4458005991014677e-02  5.5037771659590090e-02  5.4994281654850978e-02  5.5161961995983805e-02  5.5204051201554569e-02  5.5220392884128520e-02  4.4261119958343635e-02  4.4309171538638725e-02  4.4405326241389334e-02  4.4371142001596427e-02  4.4425516569067118e-02  4.2797288416101836e-02  4.2713284996738619e-02  4.2573646856342018e-02  4.2391819492614218e-02  4.2789603548145393e-02  4.2725715067167408e-02  4.2915991926861165e-02  4.5111181288971451e-02  4.5189842928573587e-02  4.5228489721813127e-02  4.5041142103248930e-02  4.4896155094458885e-02  4.4759529083340632e-02  4.4792703789099358e-02  4.4658216150963347e-02  4.4707730159003388e-02  4.4919724978259377e-02  4.4845759795133153e-02  4.5097908051415350e-02  4.5002620259668870e-02  4.4607611806648108e-02  4.5192605787868295e-02  4.5241977014569577e-02  4.5352245507015367e-02  4.5131542301925530e-02  4.5243705330637006e-02  4.5157552434912679e-02  4.5059282340891585e-02  4.4008030603359623e-02  4.3993026270380563e-02  4.3456135498298562e-02  4.4431151056666715e-02  4.4168391729060147e-02  4.4316621494755751e-02  4.4529872373995853e-02  4.5658186661115853e-02  4.5921596277676509e-02  4.5338302735193264e-02  4.5626050755657788e-02  4.5560619690882487e-02  4.5042373030627372e-02  4.5074277276685913e-02  4.5485006756225341e-02  4.5569392882202651e-02  4.5772143991691272e-02  4.5955058960465256e-02  4.5781713885594780e-02  4.5833112447538918e-02  4.5735785377036174e-02  4.5616550511445066e-02  4.5863375234134501e-02  4.3947022704353786e-02  4.3673014941151875e-02  4.3919272585435182e-02  4.4189084738422174e-02  4.3881994840604052e-02  4.3321379442737361e-02  4.3687627494659639e-02  4.3412449702925696e-02  4.4411861767796386e-02  4.4454855958294723e-02  4.4340971680360462e-02  4.3768579548435209e-02  4.3054832889313943e-02  4.4246857298616438e-02  4.3866531927266458e-02  4.3968399732064768e-02  4.3746235530834482e-02  4.1990405908608613e-02  4.1643214928928148e-02  4.2342064186233805e-02  4.2756584625001010e-02  4.2411203412703644e-02  4.2660382211534988e-02  5.1428315724475038e-02  5.317041930