<?xml version="1.0"?>
<VTKFile type="UnstructuredGrid"  version="0.1"  >
<UnstructuredGrid>
<Piece  NumberOfPoints="6340" NumberOfCells="12376">
<Points>
<DataArray  type="Float64"  NumberOfComponents="3"  format="ascii">-0.01958400011062622 0.02076900005340576 0  -0.02037600055336952 0.02148500084877014 0  -0.02057999931275845 0.02047999948263168 0  -0.02123700082302094 0.02132299914956093 0  -0.01979799941182137 0.01984300091862679 0  -0.01944700069725513 0.02165400050580502 0  -0.02003699913620949 0.0224469993263483 0  -0.01955500058829784 0.02324699983000755 0  -0.02059900015592575 0.02328299917280674 0  -0.01896899938583374 0.02236899919807911 0  -0.007811999879777431 0.01809299923479557 0  -0.008502000011503696 0.01892800070345402 0  -0.008828000165522099 0.01798699982464314 0  -0.00952600035816431 0.01885999925434589 0  -0.02573299966752529 0.07923799753189087 0  -0.02666099928319454 0.07980000227689743 0  -0.02683800086379051 0.07901699841022491 0  -0.02632799930870533 0.07259800285100937 0  -0.02694400027394295 0.07341700047254562 0  -0.02715199999511242 0.07253000140190125 0  -0.02787999995052814 0.07306999713182449 0  -0.01177399978041649 0.08972399681806564 0  -0.01268700044602156 0.08969900012016296 0  -0.01218799967318773 0.08889000117778778 0  -0.01962099969387054 0.084586001932621 0  -0.01861700043082237 0.08461499959230423 0  -0.01907199993729591 0.08543000370264053 0  -0.01916499994695187 0.08376800268888474 0  -0.02256100066006184 0.02505500055849552 0  -0.02159499935805798 0.02502500079572201 0  -0.02205299958586693 0.0259189996868372 0  -0.02246399968862534 0.0268159992992878 0  -0.02303699962794781 0.02596299909055233 0  -0.02107900008559227 0.02589300088584423 0  -0.02059799991548061 0.02499400079250336 0  -0.01958400011062622 0.0249600000679493 0  -0.02008200064301491 0.02585400082170963 0  -0.02209700085222721 0.02413799986243248 0  -0.02315500006079674 0.02423599921166897 0  -0.02245000004768372 0.02287999913096428 0  -0.02186099998652935 0.02212399989366531 0  -0.02160299941897392 0.02322199940681458 0  -0.02098800055682659 0.02236099913716316 0  -0.01604099944233894 0.02197100035846233 0  -0.01655999943614006 0.02109099924564362 0  -0.01549800019711256 0.02107900008559227 0  -0.01703000068664551 0.0220819991081953 0  -0.0180440004914999 0.02213400043547153 0  -0.01754599995911121 0.02300800010561943 0  0.04040199890732765 0.08315200358629227 0  0.04024399816989899 0.0822800025343895 0  0.04146600142121315 0.08257800340652466 0  0.041338000446558 0.09441699832677841 0  0.04205900058150291 0.09480100125074387 0  0.04105300083756447 0.09530500322580338 0  0.02487299963831902 0.103413000702858 0  0.02503100037574768 0.1024840027093887 0  0.02586299926042557 0.1029170006513596 0  0.02396400086581707 0.1038680002093315 0  0.02411399967968464 0.102742001414299 0  -0.006101000122725964 0.09798300266265869 0  -0.005233000032603741 0.09805700182914734 0  -0.005785000044852495 0.09885500371456146 0  -0.004908999893814325 0.09893500059843063 0  -0.01672700047492981 0.09932000190019608 0  -0.01709399931132793 0.09861499816179276 0  -0.01607500016689301 0.0987199991941452 0  -0.01763599924743176 0.09951599687337875 0  -0.01335700042545795 0.1051679998636246 0  -0.01358800008893013 0.1060440018773079 0  -0.014100999571383 0.1053389981389046 0  -0.009705999866127968 0.0971129983663559 0  -0.008879000321030617 0.0971129983663559 0  -0.00942699983716011 0.09792300313711166 0  -0.01053799968212843 0.09711199998855591 0  -0.009990000165998936 0.09630399942398071 0  -0.01082099974155426 0.09630300104618073 0  -0.01300999987870455 0.09948799759149551 0  -0.01351999957114458 0.1002629995346069 0  -0.01388000044971704 0.09946899861097336 0  -0.01192199997603893 0.09791199862957001 0  -0.01277900021523237 0.09790699928998947 0  -0.01222100015729666 0.0971049964427948 0  0.01135400030761957 0.09440600126981735 0  0.01231199968606234 0.09438099712133408 0  0.01175899989902973 0.09523200243711472 0  0.007511000148952007 0.07858700305223465 0  0.008077999576926231 0.07773800194263458 0  0.008469000458717346 0.07856100052595139 0  -0.00750999990850687 0.01721999980509281 0  -0.006680000107735395 0.01745199970901012 0  -0.008388999849557877 0.0170889999717474 0  -0.009306999854743481 0.01695200055837631 0  -0.01303000003099442 0.01685000024735928 0  -0.01330299954861403 0.01793400011956692 0  -0.01392100006341934 0.01703999936580658 0  -0.01245800033211708 0.01775299943983555 0  -0.0124930003657937 0.01878000050783157 0  -0.01162000000476837 0.01793600060045719 0  -0.0120449997484684 0.0217099990695715 0  -0.012533999979496 0.020754000172019 0  -0.01156899984925985 0.02079899981617928 0  -0.0110860001295805 0.01994599960744381 0  -0.01052900031208992 0.0207930002361536 0  -0.01205400004982948 0.0197989996522665 0  -0.01302400045096874 0.02172400057315826 0  -0.01449200045317411 0.02094599977135658 0  -0.01500899996608496 0.02191600017249584 0  -0.01400799956172705 0.02180599980056286 0  -0.009012999944388866 0.019811000674963 0  -0.01099899969995022 0.03071100078523159 0  -0.01151200011372566 0.02984100021421909 0  -0.01048700045794249 0.029789999127388 0  -0.005390000063925982 0.02951899915933609 0  -0.005894999951124191 0.03044299967586994 0  -0.006401999853551388 0.02957399934530258 0  -0.008034000173211098 0.01988999918103218 0  -0.005503000225871801 0.01937899924814701 0  -0.006498999893665314 0.01920099928975105 0  -0.00570600014179945 0.0185330007225275 0  -0.005783000029623508 0.01770300045609474 0  -0.004790000151842833 0.01798000000417233 0  0.04334200173616409 0.09047800302505493 0  0.0442660003900528 0.09005499631166458 0  0.04381600022315979 0.09111899882555008 0  0.04278900101780891 0.09122899919748306 0  0.01657200045883656 0.059494998306036 0  0.01760699972510338 0.05945099890232086 0  0.01712100021541119 0.06032000109553337 0  0.03038500063121319 0.04518099874258041 0  0.03087400086224079 0.04415500164031982 0  0.03132899850606918 0.04490200057625771 0  0.03238499909639359 0.04945800080895424 0  0.0333000011742115 0.04882600158452988 0  0.03361399844288826 0.04957599937915802 0  0.03203000128269196 0.0528549998998642 0  0.03109899908304214 0.05290399864315987 0  0.03164999932050705 0.05199899896979332 0  0.0312460009008646 0.05117300152778625 0  0.03224299848079681 0.05109899863600731 0  0.03068099915981293 0.0520629994571209 0  0.03013899922370911 0.05295699834823608 0  0.03023199923336506 0.05125999823212624 0  0.0297200009226799 0.05047100037336349 0  0.02921199984848499 0.05133000016212463 0  0.02868499979376793 0.05052400007843971 0  0.04077700152993202 0.09280300140380859 0  0.03978300094604492 0.09283100068569183 0  0.04034899920225143 0.09199400246143341 0  0.03937600180506706 0.09199000149965286 0  0.008473999798297882 0.0250220000743866 0  0.009242000058293343 0.02552000060677528 0  0.008472999557852745 0.02608600072562695 0  0.009310999885201454 0.02648100070655346 0  0.02818600088357925 0.05138500034809113 0  0.024125000461936 0.05324799939990044 0  0.02363399975001812 0.05411399900913239 0  0.0230919998139143 0.05328899994492531 0  0.0246569998562336 0.05407299846410751 0  0.03058400005102158 0.05379499867558479 0  0.01946200057864189 0.036336999386549 0  0.01856400072574615 0.03617300093173981 0  0.01899500004947186 0.0353039987385273 0  0.01384400017559528 0.04136399924755096 0  0.01289200037717819 0.04133599996566772 0  0.01336999982595444 0.04047000035643578 0  0.01241699978709221 0.04044200107455254 0  0.01193800009787083 0.04130600020289421 0  0.01193999964743853 0.03954600170254707 0  0.01289600040763617 0.03957699984312057 0  0.01336599979549646 0.04222999885678291 0  -0.0277549996972084 0.07393600046634674 0  -0.02665700018405914 0.07423000037670135 0  -0.02763999998569489 0.07472900301218033 0  -0.0259809996932745 0.07347500324249268 0  -0.02559399977326393 0.07428800314664841 0  -0.02456299960613251 0.07434900104999542 0  -0.02503900043666363 0.07513400167226791 0  -0.0239889994263649 0.07357099652290344 0  -0.02355300076305866 0.07439599931240082 0  -0.02406799979507923 0.0751819983124733 0  -0.02797400020062923 0.07217299938201904 0  -0.01852199994027615 0.08626800030469894 0  -0.01952599920332432 0.08624099940061569 0  -0.0171900000423193 0.09534499794244766 0  -0.01810199953615665 0.09536100178956985 0  -0.01758299954235554 0.09453800320625305 0  -0.0184909999370575 0.0945580005645752 0  -0.01798300072550774 0.09372799843549728 0  -0.01623000018298626 0.09792199730873108 0  -0.01538500003516674 0.09792699664831161 0  -0.01515000034123659 0.09872099757194519 0  -0.0131240002810955 0.08886399865150452 0  -0.01125799957662821 0.08234299719333649 0  -0.01025800034403801 0.08237399905920029 0  -0.01071500033140182 0.08318699896335602 0  -0.01019399985671043 0.084026999771595 0  -0.009728999808430672 0.08321499824523926 0  -0.0153379999101162 0.08053400367498398 0  -0.0158539991825819 0.07967600226402283 0  -0.01486300025135279 0.07971099764108658 0  -0.0138720003888011 0.07974500209093094 0  -0.01437500026077032 0.07889000326395035 0  -0.01816399954259396 0.08379899710416794 0  -0.01771200075745583 0.08297500014305115 0  -0.0187120009213686 0.08294200152158737 0  -0.0197139997035265 0.08291199803352356 0  -0.02461300045251846 0.07597699761390686 0  -0.02512600086629391 0.07843600213527679 0  -0.02469700016081333 0.07927399873733521 0  -0.02352900058031082 0.02495500072836876 0  -0.02388999983668327 0.02565000019967556 0  -0.02413900010287762 0.02634000033140182 0  -0.02440799959003925 0.02708300016820431 0  -0.02340999990701675 0.0268970001488924 0  -0.02009099908173084 0.02411600016057491 0  -0.01906700059771538 0.02406900003552437 0  -0.02111699990928173 0.02413100004196167 0  -0.02279200032353401 0.02353800088167191 0  -0.01750000007450581 0.0182499997317791 0  -0.01711799949407578 0.01901400089263916 0  -0.01830999925732613 0.01862999983131886 0  -0.01666899956762791 0.01786099933087826 0  -0.01851600036025047 0.02316500060260296 0  -0.01653899997472763 0.0229349993169
[...]
<PointData  Scalars="pressure"> 
<DataArray  type="Float64"  Name="pressure"  format="ascii">1.2805334621233925e-02  1.2825814956627112e-02  1.2807333646851464e-02  1.2831722776555345e-02  1.2787599825770577e-02  1.2826656717612239e-02  1.2845999451441582e-02  1.2860424861378211e-02  1.2863081626004585e-02  1.2839577784592488e-02  1.2490383086090937e-02  1.2531601584778600e-02  1.2449507045225244e-02  1.2499747665912692e-02  2.0857705287143882e-02  2.0724811230234473e-02  2.0759347396151505e-02  1.9632685999102548e-02  1.9844638653196793e-02  1.9569427787080439e-02  1.9606342311229909e-02  1.6741274804828329e-02  1.7059978416677994e-02  1.7105050947195576e-02  2.0244542191728127e-02  2.0127998838262877e-02  1.9948189420637436e-02  2.0404683217644368e-02  1.2894606950305745e-02  1.2894074870093088e-02  1.2908829230262714e-02  1.2925147367206178e-02  1.2908210942111361e-02  1.2909815228112064e-02  1.2893592141061731e-02  1.2896366451733506e-02  1.2913275871263348e-02  1.2880298201027207e-02  1.2910432368079741e-02  1.2887819014639475e-02  1.2855263056864595e-02  1.2862911829629092e-02  1.2844552706088759e-02  1.2801227749875216e-02  1.2768189795285836e-02  1.2743966136015909e-02  1.2817954041062861e-02  1.2828105336389912e-02  1.2852374686716418e-02  1.2622308566587505e-03  6.0842220378329662e-04  1.2802489974615347e-03  6.4413415397668759e-03  6.6062347028758642e-03  6.8386500955205463e-03  7.6183820602743531e-03  6.5372931927893041e-03  6.9394701066367434e-03  8.5625486082520682e-03  7.1238112272628117e-03  1.8175692538107607e-02  1.8309236526806712e-02  1.8747329331735736e-02  1.8914232188194154e-02  1.7891573351149267e-02  1.7845955219995605e-02  1.7873905308937892e-02  1.7969382932562381e-02  2.0112414695197783e-02  2.0413562583414258e-02  1.9844133716164652e-02  1.7485012133355772e-02  1.7504014588274906e-02  1.7856946959521530e-02  1.7480858400645873e-02  1.7152965799791746e-02  1.7198448504473048e-02  1.8208246050001820e-02  1.8393206903716361e-02  1.8141430770540267e-02  1.7761329762561215e-02  1.7748963247817596e-02  1.7507600108137192e-02  1.1778476760767157e-02  1.1088048309260169e-02  1.1419505424082405e-02  5.4514132954858610e-03  4.4731071033251293e-03  4.6729953151326787e-03  1.2492558076758326e-02  1.2501574064816098e-02  1.2450850536963085e-02  1.2407029170972269e-02  1.2415582566941939e-02  1.2472802765948268e-02  1.2466064326797839e-02  1.2431594260367142e-02  1.2500113564102338e-02  1.2406969828777285e-02  1.2770135810521031e-02  1.2677651850634897e-02  1.2685885453250794e-02  1.2599593216259277e-02  1.2703393921935893e-02  1.2585855217056735e-02  1.2761564525416571e-02  1.2714208902849817e-02  1.2785474449899973e-02  1.2768895328267901e-02  1.2619634701865001e-02  1.3731596815659235e-02  1.3574282131488811e-02  1.3704615427115327e-02  1.4417894637190789e-02  1.4438975549337710e-02  1.4256562854050867e-02  1.2649404700328194e-02  1.2595435598270924e-02  1.2580508573417411e-02  1.2496780228724701e-02  1.2489793649392480e-02  1.2488595761880158e-02  4.7560011093543209e-03  4.7080917226299231e-03  5.0716229616337627e-03  5.0550390179631898e-03  1.0696784505107026e-02  1.0784605246720431e-02  1.0173137742178704e-02  1.6085812567217327e-02  1.5819508444287946e-02  1.5664301565187375e-02  1.5128260771678614e-02  1.4651733877096233e-02  1.4535366429399971e-02  1.4114163773793532e-02  1.4175761292694111e-02  1.4421040785975121e-02  1.4708179664535781e-02  1.4616987817532987e-02  1.4479628000782552e-02  1.4221379845495643e-02  1.4755313498532208e-02  1.5014481379034579e-02  1.4783006470408601e-02  1.5031936305410163e-02  5.6514781629804760e-03  5.5252214866016482e-03  5.2021612925576633e-03  5.0376464792484133e-03  1.5359617138161800e-02  1.5426388643691840e-02  1.5432240085998488e-02  1.5541609835193010e-02  1.4783889252664611e-02  1.4013360898874529e-02  1.3684135388125580e-02  1.3938620352360070e-02  1.3757315785044400e-02  1.3909040016523341e-02  1.6283810039144996e-02  1.6233776262432165e-02  1.6243361401191470e-02  1.5820083336444905e-02  1.5750849114951150e-02  1.5806107907641864e-02  1.5723054402828344e-02  1.5677350896652825e-02  1.5686708925808625e-02  1.5778603978063018e-02  1.5756512318712633e-02  1.9846862978761117e-02  2.0005029332567717e-02  1.9965759893963361e-02  1.9870823753862329e-02  2.0087322253750289e-02  2.0129036652854156e-02  2.0297331752892965e-02  1.9949576247486223e-02  2.0164257271505011e-02  2.0332416884289758e-02  1.9318245448694073e-02  1.9646271323337829e-02  1.9786287769439782e-02  1.7649048486153490e-02  1.7730027542231692e-02  1.7721335709963485e-02  1.7817086007640863e-02  1.7850041745673229e-02  1.7760804512351791e-02  1.7759322663532036e-02  1.7907521082203257e-02  1.7427042142501188e-02  1.8451791040623364e-02  1.8019909875038147e-02  1.8183226514642582e-02  1.7851365924579921e-02  1.7726369172241116e-02  2.0189511230965060e-02  2.0331637984095187e-02  1.9996274999991483e-02  1.9606055665847482e-02  1.9700249083218692e-02  2.0286909774841377e-02  2.0420167538795025e-02  2.0536634007808550e-02  2.0621408672508668e-02  2.0483276071111924e-02  2.0835631782481032e-02  2.0902164666128611e-02  1.2921107651439435e-02  1.2932171532612865e-02  1.2928428115257439e-02  1.2938005039258722e-02  1.2925035486359154e-02  1.2877555372271195e-02  1.2878809119487813e-02  1.2878825827980568e-02  1.2897489021536221e-02  1.2694987951065082e-02  1.2696006033593724e-02  1.2733124563587772e-02  1.2640104604380437e-02  1.2858144510388520e-02  1.2846993714149088e-02  1.2880213801053782e-02  1.2879481097636697e-02  1.3606320805033123e-02  1.3760319879391159e-02  1.3637847323718083e-02  1.2791708907491324e-02  1.3045820505396911e-02  1.3194766820331752e-02  1.3111635103054747e-02  1.3116649642897601e-02  1.2963403379347991e-02  1.3355471100183487e-02  1.3525678978812152e-02  1.3418408855140408e-02  5.7275659415101628e-03  5.8072158872229896e-03  6.0508339737751224e-03  3.8622948114818267e-03  4.3684311029130755e-03  4.2071927705654997e-03  2.0057900603261724e-03  2.0332297306310701e-03  1.8149764683920858e-03  9.6698501712235482e-04  7.0684260933690912e-03  7.0447303092875894e-03  6.6492065013992871e-03  6.6086869509444932e-03  7.0360942313409947e-03  6.9484220001621031e-03  4.8213823855529679e-03  4.5348053723755170e-03  4.3190848224699645e-03  4.0213072658087561e-03  6.0915369499760022e-03  6.4724399830220977e-03  6.2051358180443550e-03  6.1366306037095222e-03  5.7568134687049962e-03  5.5891160855296093e-03  5.9823340474330095e-03  1.0747670256058104e-02  1.2029727277666699e-02  1.0699742345626446e-02  7.2388349197545030e-03  8.2153165994095379e-03  8.5551500339661260e-03  9.6549623525746392e-03  1.7981272943093759e-02  1.8348328915025178e-02  1.7913840045525292e-02  1.7530816272906986e-02  1.7735569058644506e-02  1.9637181044985890e-02  1.8942589581114083e-02  1.9035924168344123e-02  1.9320728529553736e-02  1.8092650762288040e-02  1.9356962242321720e-02  1.8925149426847261e-02  1.9163454049146503e-02  1.9553544551113501e-02  1.9278400963152739e-02  1.9692707396337134e-02  1.9495875520818700e-02  1.9346429904936117e-02  1.9523559667771098e-02  1.5484124610530772e-02  1.5449374588551069e-02  1.5401051396343885e-02  1.6029804087274280e-02  1.6320147960088668e-02  1.6199297914115441e-02  1.7532613420022089e-02  1.7123755272889601e-02  1.8257140907496805e-02  1.8676178741826810e-02  1.9019137862312352e-02  1.8685035974254187e-02  1.8825387548709001e-02  1.8608635551421185e-02  1.8953464455801379e-02  1.7811579987918793e-02  1.7782865140960769e-02  1.8106888527930402e-02  1.7491644850906124e-02  1.8371198439246235e-02  1.8458533583711311e-02  1.8287392778376824e-02  1.8994504763693583e-02  1.8303657544962656e-02  1.7960981618962098e-02  1.8050663539985211e-02  2.3492811762154849e-02  2.2873669728686839e-02  2.2837643495119117e-02  2.2236113639334552e-02  2.2208962344566499e-02  2.1824939540130296e-02  2.2541615053509940e-02  2.2908514741303197e-02  3.0365772320370264e-02  2.9607111680200825e-02  3.0249341683981690e-02  3.0441694716339382e-02  2.9877678800937196e-02  2.9986374930687114e-02  3.0499288456009924e-02  3.0573377588357015e-02  2.9978255800174720e-02  2.9434740973512889e-02  1.7518039583908279e-02  1.6066411522523551e-02  1.6143461259771126e-02  1.7645495612586749e-02  1.9005529493574515e-02  2.8894113308812676e-02  2.9378642149428633e-02  2.8403564454842559e-02  2.4351403396980019e-02  2.3740129218128833e-02  2.3451469282447908e-02  2.2110502159835926e-02  2.1895813310874562e-02  2.2714838662971817e-02  8.3048683945806858e-03  7.7965271937971165e-03  8.4858366773689041e-03  8.9709014528855935e-03  9.1823509235272605e-03  8.6515851383215762e-03  3.5972929028918734e-03  3.5613077656385748e-03  2.8776463801907437e-03  4.3256258403305834e-03  2.8971953200325100e-03  1.0420246561425005e-03  7.4839293774806113e-04  9.3615431714031121e-04  1.0877869233788622e-02  1.1346204618991721e-02  1.1432210352428179e-02  1.2026093126358276e-02  1.1929726300916228e-02  1.2378428274452929e-02  1.2290724030399134e-02  1.4331648218202927e-02  1.4054356379207251e-02  1.4286771090039868e-02  1.3887047171807951e-02  1.3910373961443274e-02  1.4033600589879571e-02  1.0534741004808831e-02  1.0609369739208094e-02  1.0851532257192164e-02  1.0073296720886913e-02  1.0426332037645258e-02  1.0023430932348530e-02  9.5884951107079244e-03  9.9713661368662290e-03  7.6389948861301793e-03  7.1669768472653016e-03  7.4321630151672237e-03  7.7425633216552875e-03  7.2492753860775678e-03  7.1792169520472297e-03  7.7374168587095249e-03  7.2897098812694291e-03  6.6934358459344806e-03  6.6972373188204978e-03  7.2524570655470941e-03  7.8598211496871111e-03  7.2235616209012730e-03  6.1838768085600640e-03  6.2390460370559927e-03  6.9631482503228976e-03  5.3509598882218222e-03  1.3270293076452361e-02  1.2635224716319591e-02  1.2496190011211716e-02  1.7480749743018428e-02  1.7068196115582690e-02  1.6456289756620366e-02  9.9486521502096040e-03  1.0577738881157558e-02  1.0155099207068630e-02  1.0761862530675478e-02  9.8783309675443201e-03  9.6370454752467902e-03  1.1202351355234785e-02  1.0935880746936875e-02  1.1490833984698804e-02  1.0658706713447416e-02  1.0032856153627843e-02  1.0788286426313598e-02  1.0866009001786379e-02  1.0280483798822097e-02  1.1872486356079274e-02  4.9563144651033871e-03  3.9176675806694983e-03  5.7364158389059585e-03  6.0901698527262779e-03  6.8987489305281395e-03  3.7234556114321511e-03  3.3619670312389402e-03  3.9360290811919973e-03  2.9228510225611597e-03  1.2672014451616920e-02  1.2583654868780714e-02  1.2528073569392319e-02  1.2585334927078660e-02  1.2598574928376228e-02  1.2385290755666595e-02  1.2347974766943198e-02  1.2529665659869044e-02  1.2441711846806588e-02  1.2377269504765004e-02  1.2370414806326419e-02  1.2415186678100867e-02  1.3454992581693857e-02  1.3421766106378529e-02  1.3314831498866803e-02  1.3348877254050076e-02  1.3672437429096015e-02  1.3633802191884358e-02  1.3799145190565076e-02  1.3756448933473560e-02  1.3930664000736850e-02  1.3881683005338475e-02  1.4602899230316024e-02  1.3792173815121350e-02  1.3892299940018950e-02  1.3648166868355825e-02  1.3992388901352341e-02  1.4147710151515173e-02  1.2561843319700979e-02  1.2676718920113902e-02  1.9344291585890693e-02  1.9200506505100294e-02  1.8718308563915285e-02  1.8963766902939626e-02  1.8810308791918300e-02  1.3267840959802992e-02  1.3373058705888549e-02  1.3451271064471486e-02  1.2683436223055854e-02  1.2572485911134412e-02  1.2661935782686587e-02  1.0546186624012736e-02  1.0126048593335223e-02  9.9298883459800653e-03  6.1542161167614431e-04  1.1132039504779222e-02  1.1236418467508679e-02  1.1609135038372910e-02  4.3953344623298349e-03  3.2983984961958081e-03  3.4333479400636474e-03  3.7303928523733675e-03  3.9454854703095555e-03  1.3317232324785674e-02  1.3293588295709617e-02  1.3163336775429234e-02  1.3556770843759169e-02  1.3338876905155742e-02  1.3252528265148552e-02  1.3504559778668686e-02  1.1467720777218894e-02  1.1804890531750522e-02  1.1500955095620975e-02  1.2090551688382068e-02  1.2110953770833995e-02  1.1797557373110449e-02  1.3328541434227615e-02  1.3603084890945966e-02  1.3305850318884944e-02  1.3015280030154784e-02  1.2718968792433416e-02  1.2727382953783593e-02  1.3019439629571630e-02  1.2694739503381663e-02  1.2716522775214078e-02  1.2388216597535903e-02  1.2015973625358781e-02  1.2069909188378518e-02  1.1693561074249625e-02  1.2511772041163405e-02  1.2451615499315831e-02  1.2229936879700851e-02  1.1765205331646406e-02  1.2056436690027844e-02  5.5847281098791220e-03  4.8292617444408133e-03  5.4016993092995151e-03  1.0154798139264908e-02  1.0632328074209793e-02  1.0759147738788714e-02  1.0984633985579808e-02  7.0245216580660614e-03  6.6202886271230776e-03  7.2451704693333356e-03  6.3722511279677889e-03  6.8524785505624814e-03  7.5244146068029656e-03  1.2988520541717624e-02  1.3353265509314096e-02  1.3121780482517416e-02  1.2631389068122952e-02  1.2865273251881450e-02  1.1971437464379616e-02  1.2054482445740328e-02  1.1636182371784026e-02  1.2750949424183764e-02  1.2357418375152925e-02  7.1955150140303441e-03  6.4871692525229133e-03  7.1807490285502092e-03  6.5011259535495197e-03  7.2274391952405420e-03  7.9093412977954015e-03  6.0085654604416384e-03  6.5765203714904120e-03  5.8821583035573947e-03  3.1849854537611875e-03  3.3793994197665062e-03  3.3489267773785551e-03  4.0839958841766173e-03  4.3193261240618425e-03  1.5949740209444143e-02  1.4024238475465604e-02  1.4321557821212336e-02  1.4049093686972283e-02  1.3805281944913489e-02  1.4323789670919204e-02  1.4102705576232232e-02  1.4598858796528518e-02  1.5344794010490539e-02  1.4893445193417433e-02  1.4323713459445650e-02  1.5623395124928798e-02  1.5400451520049915e-02  1.5446828773476971e-02  1.5213674813785535e-02  1.5019459864621372e-02  1.4754330397395845e-02  1.4922028645355193e-02  1.4664540287458245e-02  1.4849453508078533e-02  1.5807379361645630e-02  1.5760346396120055e-02  1.4514149506773240e-02  1.4968188206724534e-02  4.7161696440673351e-03  1.5572109749658117e-02  1.5524995160435198e-02  1.5532388554363275e-02  1.5642107412861483e-02  1.5677466904198578e-02  1.5640990981371377e-02  1.5655166889262752e-02  1.5147011370295246e-02  1.5185389237445097e-02  1.5088626751010090e-02  1.5042416286444484e-02  1.5112244838055499e-02  1.5202109377510653e-02  1.4852433876153159e-02  1.4915180800510439e-02  1.4720764826611452e-02  1.5012535939614203e-02  1.4789421146475853e-02  1.4973525008473538e-02  1.4567740626982581e-02  1.4487659806088083e-02  1.3406666979587020e-02  1.3111014279834700e-02  1.3031702850535747e-02  1.3885152688000779e-02  1.3825857429976504e-02  1.4155864969773765e-02  1.4404910808076175e-02  1.4463881934332663e-02  1.4090605716322462e-02  1.3630475566412654e-02  1.3329800511870313e-02  1.3634428681042901e-02  8.1879152068778608e-03  7.9313682520237641e-03  8.5359003544637543e-03  1.0848509192601150e-02  1.1188146682223928e-02  1.1291664285416255e-02  1.6227291515114359e-02  1.6139583493284489e-02  1.6173864322317395e-02  1.6306680765988731e-02  1.6275016188921000e-02  1.6346178588352564e-02  1.6155394308198914e-02  1.6180232108624779e-02  1.6212632482178357e-02  1.6289139337439522e-02  1.6253984435531811e-02  1.6466350303172214e-02  1.6501282389545888e-02  1.6332999131614512e-02  1.6419162693360106e-02  1.6391388286952975e-02  1.6439709161751109e-02  1.6384560026507171e-02  1.6493922763075295e-02  1.6269650321594602e-02  1.6340259628997107e-02  1.6407655432345417e-02  1.6457340327764500e-02  1.6419273509400305e-02  1.6422050934650462e-02  1.5480798121504324e-02  1.5491903179434149e-02  1.5404010143334129e-02  1.5420080145079980e-02  1.5532906171526847e-02  1.5552556014095758e-02  1.5403762185968697e-02  1.5516801005060352e-02  1.5643613037130924e-02  1.6118119086678068e-02  1.5883051063769041e-02  1.5885762744884610e-02  1.5759837207659659e-02  1.5667068505953612e-02  1.5594299292065654e-02  1.5695370204078511e-02  1.5619729240141655e-02  1.5728731550730089e-02  1.5789119251121968e-02  1.5814855592626909e-02  1.5869672113731255e-02  1.5741060106761171e-02  1.5695867620154742e-02  2.0187424741398712e-02  1.9931810647769010e-02  2.0130234504266063e-02  1.1083677014271872e-02  1.1215270672441706e-02  1.0593049321288323e-02  2.0523014729304623e-02  2.0649807289794805e-02  2.0253668213079577e-02  1.9685748199943280e-02  1.8151693148693665e-02  1.8223643586294941e-02  1.7912609273932713e-02  1.8093027720962922e-02  1.8365664764210071e-02  1.9984021604475599e-02  2.0285748584536266e-02  1.8723952141037229e-02  1.8747031531003752e-02  1.9009830045062168e-02  1.9809958370769144e-02  1.8675191791301803e-02  1.8460930700446632e-02  1.8560736912205625e-02  1.9308269923045848e-02  1.9482403791967313e-02  1.7923387290603436e-02  1.7810383278574350e-02  1.7810782657115911e-02  1.7678793278922519e-02  1.7700572790938864e-02  1.7678839179076825e-02  1.7748299291270170e-02  1.7816040308491793e-02  1.7842992476778681e-02  1.7928756556803108e-02  1.7704784498702487e-02  1.7852840404200026e-02  1.6766544979560725e-02  1.7756827114100478e-02  1.5721886052042482e-02  1.5837447790217035e-02  1.5963178914045712e-02  1.5830490988263606e-02  1.7877737940349227e-02  1.7481902499045646e-02  1.7466625184033857e-02  1.6462199814945122e-02  1.6732145445255683e-02  1.6563000602485403e-02  1.6822485746725097e-02  1.6588843475494254e-02  1.7149423740649677e-02  1.6008313376100800e-02  1.5741058790656841e-02  1.5942444898108754e-02  1.6787774357158815e-02  1.7093745469899523e-02  1.7507756936096561e-02  2.0522537889990870e-02  2.0291590519437595e-02  2.0089852102728411e-02  2.0389581269025125e-02  2.0121958568322634e-02  1.0751310442964554e-02  1.1371017426514366e-02  2.0403706616194093e-02  2.0620845588219833e-02  2.0093637646252140e-02  2.0927367899264533e-02  2.0820016434329472e-02  2.0875117391747945e-02  2.0550220377797170e-02  2.0574251403107147e-02  2.0716693965543660e-02  2.0131532675909489e-02  2.0726961601022068e-02  2.0626616333838700e-02  2.0804731510956943e-02  2.0852885947935933e-02  2.0672562998614592e-02  2.0909875526308748e-02  2.0926182072520748e-02  2.0915766365770527e-02  1.2945241603814817e-02  1.2951399283873129e-02  1.2974795174137840e-02  1.2967615837712271e-02  1.2976251687614680e-02  1.2779966896275424e-02  1.2762402206608101e-02  1.2740243711790274e-02  1.2686396408502732e-02  1.2792463263892093e-02  1.2774308305446269e-02  1.2839447072705883e-02  1.3123847834108056e-02  1.3140554089973748e-02  1.3153467047624490e-02  1.3103794525867879e-02  1.3070558604465316e-02  1.3041238669081431e-02  1.3049511645293889e-02  1.3049331615631002e-02  1.3074668335623528e-02  1.3103971393796454e-02  1.3076426245799069e-02  1.3132742034347864e-02  1.3102326661771548e-02  1.3029692439587261e-02  1.3172380589836037e-02  1.3157516605649289e-02  1.3179457191301499e-02  1.3125833347446176e-02  1.3161989182900886e-02  1.3139960673801956e-02  1.3112732005026150e-02  1.2931432568368489e-02  1.2937763094814883e-02  1.2910395780545730e-02  1.2855112117395581e-02  1.2786167642215998e-02  1.2830479752127068e-02  1.2894488876439000e-02  1.3520280079357115e-02  1.3664262724417540e-02  1.3295204698830710e-02  1.3415318940107017e-02  1.3325511181713937e-02  1.3192562735859255e-02  1.3261049263258357e-02  1.3221624951933887e-02  1.3237421771942514e-02  1.3300011913100471e-02  1.3363375234626149e-02  1.3296208001971623e-02  1.3441082564033433e-02  1.3351313725590248e-02  1.3278502035688670e-02  1.3367297558276137e-02  1.2971669345540794e-02  1.2946424180508332e-02  1.2990624799604835e-02  1.3048382448460027e-02  1.3019253746690778e-02  1.3165054929460627e-02  1.3210312223794389e-02  1.3085961989561459e-02  1.3281825875016617e-02  1.3192796278425404e-02  1.3390163739160153e-02  1.3126046668387388e-02  1.3038694711096890e-02  1.3511019766750270e-02  1.3469610784809845e-02  1.3354524470471030e-02  1.3585947946105261e-02  1.2824943412614512e-02  1.2730980268621666e-02  1.2911625808249921e-02  1.3279445367848516e-02  1.3186771049500917e-02  1.3359524038170751e-02  5.5708501988198152e-03  5.674762390