<?xml version="1.0"?>
<VTKFile type="UnstructuredGrid"  version="0.1"  >
<UnstructuredGrid>
<Piece  NumberOfPoints="6340" NumberOfCells="12376">
<Points>
<DataArray  type="Float64"  NumberOfComponents="3"  format="ascii">-0.01909800060093403 0.02062799967825413 0  -0.01968800090253353 0.02122299931943417 0  -0.01992999948561192 0.02026000060141087 0  -0.02038699947297573 0.0209100004285574 0  -0.01933800056576729 0.01971600018441677 0  -0.01892399974167347 0.02149300090968609 0  -0.01934299990534782 0.022172000259161 0  -0.01889700070023537 0.02300100028514862 0  -0.01972500048577785 0.02283399924635887 0  -0.01848400011658669 0.02222700044512749 0  -0.008927999995648861 0.01768800057470798 0  -0.00953499972820282 0.01859699934720993 0  -0.009868999943137169 0.0176599994301796 0  -0.01048200018703938 0.01861000061035156 0  -0.02426300011575222 0.07033400237560272 0  -0.0251650009304285 0.07057200372219086 0  -0.02530200034379959 0.06981699913740158 0  -0.02443699911236763 0.0641539990901947 0  -0.02507600001990795 0.06472499668598175 0  -0.02521299943327904 0.06385499984025955 0  -0.02593999914824963 0.06413999944925308 0  -0.01226499956101179 0.08279299736022949 0  -0.01309499982744455 0.08255600184202194 0  -0.01251699961721897 0.08206000179052353 0  -0.01875299960374832 0.07674100250005722 0  -0.01781800016760826 0.0770379975438118 0  -0.01831999979913235 0.07758600264787674 0  -0.01825599931180477 0.07618500292301178 0  -0.02114799991250038 0.02396900020539761 0  -0.02038099989295006 0.02422500029206276 0  -0.02067600004374981 0.02486900053918362 0  -0.0209330003708601 0.02552900090813637 0  -0.02145599946379662 0.02462100051343441 0  -0.01990200020372868 0.02512999996542931 0  -0.01958999969065189 0.02440799959003925 0  -0.01878600008785725 0.02456999942660332 0  -0.01911100000143051 0.02529699914157391 0  -0.02085000090301037 0.02330699935555458 0  -0.02168500050902367 0.02308399975299835 0  -0.02122999913990498 0.02211000025272369 0  -0.02081999927759171 0.021526999771595 0  -0.0205290000885725 0.02258599922060966 0  -0.02010699920356274 0.02191199921071529 0  -0.0160949993878603 0.02202500030398369 0  -0.01658600009977818 0.02114400081336498 0  -0.0156870000064373 0.0211389996111393 0  -0.01692499965429306 0.02212299965322018 0  -0.01774699985980988 0.02208299934864044 0  -0.01727999933063984 0.02297000028192997 0  0.03957799822092056 0.07635100185871124 0  0.03937600180506706 0.07547199726104736 0  0.04057500138878822 0.07554300129413605 0  0.04092700034379959 0.08661700040102005 0  0.04163600131869316 0.086837999522686 0  0.04055999964475632 0.0872810035943985 0  0.0232319999486208 0.09441199898719788 0  0.02347300015389919 0.09372899681329727 0  0.0242919996380806 0.09397599846124649 0  0.02225800044834614 0.09481299668550491 0  0.02250799909234047 0.09398800134658813 0  -0.008221999742090702 0.09064500033855438 0  -0.007426999974995852 0.09094899892807007 0  -0.008046999573707581 0.09142400324344635 0  -0.007240000180900097 0.09173399955034256 0  -0.01812699995934963 0.08888900279998779 0  -0.01837999932467937 0.08826600015163422 0  -0.01744399964809418 0.08858899772167206 0  -0.01899899914860725 0.08882000297307968 0  -0.01582200080156326 0.09426400065422058 0  -0.01616100035607815 0.09488999843597412 0  -0.01651700027287006 0.09419199824333191 0  -0.0113359997048974 0.0889350026845932 0  -0.01058799959719181 0.0891600027680397 0  -0.01120200008153915 0.08964599668979645 0  -0.01209700014442205 0.08871900290250778 0  -0.01148299966007471 0.08823499828577042 0  -0.01224400009959936 0.088018998503685 0  -0.0146890003234148 0.08992200344800949 0  -0.01526399981230497 0.09038999676704407 0  -0.01549000013619661 0.08968900144100189 0  -0.01347499992698431 0.08898100256919861 0  -0.01426700036972761 0.08876500278711319 0  -0.0136470003053546 0.08828900009393692 0  0.01008099969476461 0.0889739990234375 0  0.0110700000077486 0.0888810008764267 0  0.01042800024151802 0.08953899890184402 0  0.007457999978214502 0.07785400003194809 0  0.008008000440895557 0.07703600078821182 0  0.008445000275969505 0.0777600035071373 0  -0.008679999969899654 0.01676999963819981 0  -0.007911000400781631 0.01693199947476387 0  -0.00949500035494566 0.01670599915087223 0  -0.01034600008279085 0.01663899980485439 0  -0.01374000031501055 0.01679999940097332 0  -0.01393000036478043 0.01790899969637394 0  -0.01451599970459938 0.01702900044620037 0  -0.01318600028753281 0.0176829993724823 0  -0.01317800022661686 0.01873200014233589 0  -0.01241999957710505 0.01781200058758259 0  -0.01264800038188696 0.02168099954724312 0  -0.01312300004065037 0.02073300071060658 0  -0.01226199977099895 0.02072999998927116 0  -0.01185700017958879 0.01982700079679489 0  -0.01131999958306551 0.02065300010144711 0  -0.01274100039154291 0.01974299922585487 0  -0.01350999996066093 0.02173599973320961 0  -0.01483900006860495 0.02100900001823902 0  -0.01522400043904781 0.02197599969804287 0  -0.01437299977988005 0.02185999974608421 0  -0.009975000284612179 0.01954199932515621 0  -0.011311000213027 0.03075399994850159 0  -0.01180300023406744 0.02989500015974045 0  -0.01090199965983629 0.02979999966919422 0  -0.006293999962508678 0.02918699942529202 0  -0.00672800000756979 0.03017299994826317 0  -0.007224999833852053 0.02932400070130825 0  -0.009069000370800495 0.01954399980604649 0  -0.006763000041246414 0.018800999969244 0  -0.007681999821215868 0.01871000044047832 0  -0.006978999823331833 0.01795100048184395 0  -0.007079999893903732 0.01710600033402443 0  -0.006159999873489141 0.01730000041425228 0  0.04315999895334244 0.08338099718093872 0  0.0439779981970787 0.08275400102138519 0  0.04369800165295601 0.08395799994468689 0  0.04268800094723701 0.08420100063085556 0  0.0146270003169775 0.05732399970293045 0  0.01562600024044514 0.05705900117754936 0  0.01523400004953146 0.05801000073552132 0  0.02673999965190887 0.04042600095272064 0  0.02711799927055836 0.03932299837470055 0  0.02763699926435947 0.03995300084352493 0  0.0291569996625185 0.04414800181984901 0  0.02999399974942207 0.04333899915218353 0  0.03038300015032291 0.04400999844074249 0  0.02915900014340878 0.04756899923086166 0  0.02824999950826168 0.04779800027608871 0  0.02869899943470955 0.04679499939084053 0  0.02821199968457222 0.04606800153851509 0  0.02918899990618229 0.04578899964690208 0  0.02774799987673759 0.04705899953842163 0  0.02730700001120567 0.0480480007827282 0  0.02721999958157539 0.04636299982666969 0  0.02662999927997589 0.04570500180125237 0  0.02621899917721748 0.04664799943566322 0  0.0256120003759861 0.04598499834537506 0  0.04048600047826767 0.08549600094556808 0  0.03946100175380707 0.08559499680995941 0  0.04011299833655357 0.08494500070810318 0  0.03911300003528595 0.08501899987459183 0  0.005677000153809786 0.02292999997735023 0  0.006351000163704157 0.02336099930107594 0  0.005721000023186207 0.02402699925005436 0  0.006450999993830919 0.02434599958360195 0  0.02521100081503391 0.04692799970507622 0  0.02140000090003014 0.04962199926376343 0  0.02100500091910362 0.05057099834084511 0  0.02039200067520142 0.04988300055265427 0  0.02200699970126152 0.05031000077724457 0  0.02783199958503246 0.04878599941730499 0  0.01582599990069866 0.03352700173854828 0  0.01500300038605928 0.03346100077033043 0  0.01534599997103214 0.03251900151371956 0  0.01103900000452995 0.03929499909281731 0  0.01019799988716841 0.03935199975967407 0  0.0105790002271533 0.03841400146484375 0  0.009736999869346619 0.0384720005095005 0  0.009356000460684299 0.03940900042653084 0  0.009278999641537666 0.03758800029754639 0  0.01011900044977665 0.03753399848937988 0  0.01065799966454506 0.04023399949073792 0  -0.02587899938225746 0.0649619996547699 0  -0.02485799975693226 0.06554599851369858 0  -0.02582300081849098 0.0657150000333786 0  -0.02416799962520599 0.0650549978017807 0  -0.02385500073432922 0.06590399891138077 0  -0.02288299985229969 0.06625699996948242 0  -0.02338599972426891 0.06683199852705002 0  -0.02228699997067451 0.06571699678897858 0  -0.02192799933254719 0.06659100204706192 0  -0.02246800065040588 0.06715600192546844 0  -0.02596800029277802 0.063291996717453 0  -0.01789700053632259 0.07841800153255463 0  -0.01881900057196617 0.07813200354576111 0  -0.01803299970924854 0.08576499670743942 0  -0.01886899955570698 0.08556199818849564 0  -0.01827600039541721 0.08506199717521667 0  -0.01910899952054024 0.08486299961805344 0  -0.01852199994027615 0.0843529999256134 0  -0.01748800091445446 0.08794599771499634 0  -0.01670099981129169 0.08815199881792068 0  -0.01658199913799763 0.08881200104951859 0  -0.01336199976503849 0.08181300014257431 0  -0.01073599979281425 0.07716099917888641 0  -0.00980599969625473 0.0774570032954216 0  -0.01032199990004301 0.07799399644136429 0  -0.009956999681890011 0.07879900187253952 0  -0.009421000257134438 0.07827299833297729 0  -0.01445799972862005 0.07447499781847 0  -0.01491499971598387 0.07357200235128403 0  -0.0139769995585084 0.07388599961996078 0  -0.0130390003323555 0.07419999688863754 0  -0.01348299998790026 0.07329700142145157 0  -0.01731899939477444 0.07648699730634689 0  -0.01683600060641766 0.07591400295495987 0  -0.01777799986302853 0.07560399919748306 0  -0.01872099936008453 0.07529500126838684 0  -0.02303499914705753 0.0677189975976944 0  -0.02365499921143055 0.06978800147771835 0  -0.02328299917280674 0.07066500186920166 0  -0.02192699909210205 0.02360099926590919 0  -0.0221599992364645 0.02410000003874302 0  -0.02231100015342236 0.02457999996840954 0  -0.02247500047087669 0.02509699948132038 0  -0.02168199978768826 0.0253090001642704 0  -0.01925499923527241 0.02369699999690056 0  -0.01844399981200695 0.02384999953210354 0  -0.02007099986076355 0.02351499907672405 0  -0.02145100012421608 0.0225830003619194 0  -0.01754599995911121 0.01830700039863586 0  -0.01717800088226795 0.01906999945640564 0  -0.01820999942719936 0.01868000067770481 0  -0.0168639998883009 0.0179239995777607 0  -0.01805900037288666 0.02303400076925755 0  -0.01646099984645844
[...]
<PointData  Scalars="pressure"> 
<DataArray  type="Float64"  Name="pressure"  format="ascii">3.3793342645904376e-02  3.3933226188369331e-02  3.3826701958578481e-02  3.3958031967679381e-02  3.3697847403221771e-02  3.3870207950184493e-02  3.4003033044554550e-02  3.4053086117351521e-02  3.4123276259382114e-02  3.3907393658433968e-02  3.2721643561064981e-02  3.2779605244936755e-02  3.2733619326026260e-02  3.2799253028626012e-02  3.2797036464894326e-02  3.2678248496670122e-02  3.2875830144128405e-02  3.3648335575855823e-02  3.3780661542038022e-02  3.3872734557367459e-02  3.3859100758063448e-02  2.9661198629230209e-02  2.9865125869601199e-02  2.9794109089781615e-02  3.1413991494671958e-02  3.1221632718134749e-02  3.1292708033821046e-02  3.1341575163383602e-02  3.4374452893598119e-02  3.4321573372325900e-02  3.4392439169400241e-02  3.4453405222668876e-02  3.4452324924299005e-02  3.4365828712244695e-02  3.4280362744752865e-02  3.4209907487711917e-02  3.4315006654165411e-02  3.4297635521086729e-02  3.4298289139863151e-02  3.4170923238611400e-02  3.4080415025256806e-02  3.4201368356855076e-02  3.4070387501961542e-02  3.3558218917599379e-02  3.3524972385602682e-02  3.3406573919203465e-02  3.3683170602170839e-02  3.3792317210513907e-02  3.3837586221906885e-02  8.9252070357960893e-03  7.6735626275038866e-03  8.7692218859843091e-03  9.5039519067869355e-03  8.8684629568324593e-03  1.0724776300897271e-02  1.6775770869176435e-02  1.5894158035421900e-02  1.7069042643520618e-02  1.6500028275575396e-02  1.5500765460539294e-02  2.6950719387776049e-02  2.6689892223781642e-02  2.6715973308735718e-02  2.6451732142810772e-02  2.9310632133451697e-02  2.9511459051131311e-02  2.9085877254412858e-02  2.9429905314693475e-02  2.7786573166642532e-02  2.7599230718455083e-02  2.7770429183365981e-02  2.8069149209165190e-02  2.7859793098234296e-02  2.7834758563527642e-02  2.8265760693756400e-02  2.8304988632350918e-02  2.8501993391916843e-02  2.8345656160677916e-02  2.8294786505964013e-02  2.8521650094143303e-02  2.8422772537033607e-02  2.8615400386300109e-02  2.8657642267355243e-02  1.3643265973681436e-02  1.2826893335395871e-02  1.3493622663362547e-02  2.2133418804308420e-02  2.2588415245192249e-02  2.1837129277847773e-02  3.2677900436278766e-02  3.2684206258662807e-02  3.2677026824927735e-02  3.2704129785245777e-02  3.2920771522719251e-02  3.2997003888045967e-02  3.2996053376837746e-02  3.2929444900033820e-02  3.2964731731632987e-02  3.2869333823048588e-02  3.3137123203496759e-02  3.3092147036738996e-02  3.3026372840719451e-02  3.2935534122871757e-02  3.2971172963152058e-02  3.2988646450008922e-02  3.3213614130761841e-02  3.3287997229111604e-02  3.3436286267269549e-02  3.3318280628995688e-02  3.2849644118774148e-02  3.4154846561603634e-02  3.4018526572921350e-02  3.3988318272863680e-02  3.4150458740117261e-02  3.4272377602870822e-02  3.4106113380865569e-02  3.2849928243460502e-02  3.2886746732473542e-02  3.2820002602126024e-02  3.2788565350570009e-02  3.2726100898149132e-02  3.2812527110829291e-02  5.6438858537847291e-03  5.2556985157082552e-03  5.0185196325431940e-03  6.1136159731366522e-03  2.4215849647291610e-02  2.4842607910350242e-02  2.4020552554931240e-02  4.1452662757621182e-02  4.1303053826691132e-02  4.1526989828029680e-02  4.2816674942347602e-02  4.2840298463964158e-02  4.3026039022324991e-02  4.2393516649319223e-02  4.2118107420667433e-02  4.2514123311584648e-02  4.2548425952595094e-02  4.2750144911819429e-02  4.2212383046667967e-02  4.1709249948915443e-02  4.2228291276933762e-02  4.2152759283969859e-02  4.1762803878192881e-02  4.1671948876024809e-02  8.9806265310853964e-03  9.9293091845610876e-03  8.9978215393323215e-03  9.8066111266217702e-03  3.4468941532980212e-02  3.4575161067007060e-02  3.4580890359756374e-02  3.4727615969872713e-02  4.1150996412763388e-02  3.6628738829265532e-02  3.5418650148414263e-02  3.5568313865441861e-02  3.6523103921363688e-02  4.1558046821936742e-02  3.7022442726369557e-02  3.6857536284486785e-02  3.6802073571986081e-02  3.6285432025179962e-02  3.6092474145090918e-02  3.6298537962616499e-02  3.6116066209149991e-02  3.5902957908781438e-02  3.6093318353305023e-02  3.6271275917992563e-02  3.6010225402156357e-02  3.3718412435072814e-02  3.3592756761685168e-02  3.3430045582908567e-02  3.3484500856462408e-02  3.3321372684267513e-02  3.3158692102196602e-02  3.3119451622194769e-02  3.3180414823362356e-02  3.2980591193938161e-02  3.2957704661639622e-02  3.3926223554512615e-02  3.1169543998421430e-02  3.1344091788389490e-02  2.9992688291650360e-02  3.0117142071497880e-02  3.0202009022696288e-02  3.0324292796086484e-02  3.0405353379126102e-02  2.9268011749820983e-02  2.9137110938048313e-02  2.8929123002428569e-02  3.0001989823695691e-02  2.9199776351801796e-02  2.8922469100721857e-02  2.9135183618404559e-02  2.9084820866458468e-02  2.8862287715152282e-02  3.0336837543797669e-02  3.0475877466220536e-02  3.0150292730934312e-02  2.9831128411439239e-02  2.9945229258411508e-02  3.1132549887829639e-02  3.1029688003954076e-02  3.1258209087223827e-02  3.1474204718581603e-02  3.2938969113533688e-02  3.2683661852473261e-02  3.2559135988276575e-02  3.4352265220591087e-02  3.4394893726357047e-02  3.4454523285038494e-02  3.4501896547760758e-02  3.4508460838819706e-02  3.4173920962915764e-02  3.4096198985848147e-02  3.4228037711950050e-02  3.4243030215914717e-02  3.3365535789715232e-02  3.3410035052952709e-02  3.3463002981011902e-02  3.3264597270220866e-02  3.3950544139969098e-02  3.3725683434063500e-02  3.3765863766890301e-02  3.3883997547981291e-02  3.4181126245908057e-02  3.4363636692085038e-02  3.4390063722043847e-02  3.3071471017491791e-02  3.3206649622578202e-02  3.3296096851601474e-02  3.3320097333188657e-02  3.3201526435876171e-02  3.3107085027655733e-02  3.3401764317679460e-02  3.3513774415020334e-02  3.3499983195745882e-02  5.1778117570906220e-03  3.7524434035279210e-03  5.4231046313348444e-03  8.3191348844314263e-03  8.2276393224431019e-03  9.0160317158220413e-03  1.0700378835406621e-02  1.1332749774615836e-02  1.0999824629002440e-02  8.4527798278349366e-03  1.3508319095930449e-02  1.4487183538386081e-02  1.3293674611464728e-02  1.2108587639162255e-02  1.2552027208972775e-02  1.1653979202835221e-02  1.0480374285682275e-02  9.7448715242384673e-03  1.0390325352453491e-02  9.7011661904027706e-03  9.1770881354007270e-03  1.0748457898290282e-02  1.1151325038168037e-02  1.2140493244741051e-02  1.2488499855319239e-02  1.1598084390659446e-02  1.0091129672570427e-02  1.6009720308434953e-02  1.5885312891603266e-02  1.5183985717749366e-02  1.4712457961859158e-02  1.5635694057654748e-02  1.5111013319953643e-02  1.6227766610799655e-02  2.7423334046555840e-02  2.7411418279739960e-02  2.7631252802945334e-02  2.7647303569696198e-02  2.6937244031392318e-02  2.4870016537753649e-02  2.5175723720024867e-02  2.4566298254068926e-02  2.6501535664099761e-02  2.9176852214813198e-02  2.8155238549302596e-02  2.8330255504892841e-02  2.8290974461464398e-02  2.7913726214187234e-02  2.8052850084562531e-02  2.7537651917250577e-02  2.7667375028002351e-02  2.7704967457209351e-02  2.7546304089129271e-02  2.8048757237112754e-02  2.8229240589302540e-02  2.7995143254640423e-02  2.8773055084790805e-02  2.8775013361839616e-02  2.8979245572959330e-02  2.8845871845756904e-02  2.8097013189819699e-02  2.7615978820075115e-02  2.7402726959395433e-02  2.7878970042554980e-02  2.8077826354033907e-02  2.7908845141276901e-02  2.7942267850281616e-02  2.7739734333993453e-02  2.8031358707728559e-02  2.8229267102066410e-02  2.8007434010595692e-02  2.8462072013511169e-02  2.7976495182348699e-02  2.7791701741581291e-02  2.8161660325194769e-02  2.7981710496439473e-02  2.8467662317179655e-02  2.8570202276858504e-02  2.8199111930276455e-02  2.4207519016017334e-02  2.4312801139224353e-02  2.3952063460855089e-02  2.4073177253451299e-02  2.5505895782968920e-02  2.5326048404307754e-02  2.5130584446986393e-02  2.5328028543589023e-02  2.3952128057439126e-02  2.3893047723102776e-02  2.3735620661915074e-02  2.4250920591139865e-02  2.4155632879580564e-02  2.4764748738202110e-02  2.4486961466284114e-02  2.4794864895085974e-02  2.4455517213970532e-02  2.4676745585433899e-02  1.6550147189962641e-02  1.6046236327503741e-02  1.6160246302388881e-02  1.6568170758556933e-02  1.7024178093778868e-02  2.2638656308340350e-02  2.3022450169311783e-02  2.2758022367783379e-02  2.2806393818287921e-02  2.2878173630939896e-02  2.2384577028232617e-02  2.3648019113740246e-02  2.3180725084350661e-02  2.3525988896942900e-02  1.0920885897063944e-02  1.0685099261349891e-02  1.0820090987393166e-02  1.1067623167825225e-02  1.1054844491225351e-02  1.0873766504505734e-02  2.3197738549458814e-02  2.3796102503003295e-02  2.3732968920563546e-02  2.3269474497008256e-02  2.3148592310514974e-02  2.5071869109352819e-02  2.4817870778950538e-02  2.4799623509144744e-02  2.5569291502095314e-02  2.5855528664154911e-02  2.6703719077596621e-02  3.2924061801775227e-02  3.1832034532873719e-02  3.3311688131495182e-02  3.2178918346696839e-02  3.4835023863366690e-02  3.3701042848402279e-02  3.3945702239205379e-02  3.4346173372765708e-02  3.4575335877285424e-02  3.4577278577062470e-02  2.7152957551182862e-02  2.7365778918366068e-02  2.7401182660316811e-02  2.6426526238364341e-02  2.6236546850465461e-02  2.6094981378133375e-02  2.5995960019088545e-02  2.5710148330136493e-02  1.0871457306957466e-02  1.1637441136206328e-02  1.1203679508095634e-02  1.1588223239188705e-02  2.5241372988469114e-02  2.5286557514582676e-02  2.6039247486083616e-02  2.5205356100599197e-02  2.4357833658340450e-02  2.4175954917274558e-02  2.5160437468569871e-02  2.6175106065176524e-02  2.5016806383756144e-02  2.3550521654409948e-02  2.3696087837748063e-02  2.4928427318369827e-02  2.2214300401070131e-02  1.6076843637236746e-02  1.5189808984789539e-02  1.5120679375194786e-02  2.0427465547180886e-02  2.0588163144101636e-02  1.9704578700998447e-02  1.1684625808125553e-02  1.2083399256217722e-02  1.2130078606798714e-02  1.2538952051489926e-02  1.1417212915429345e-02  1.1322004944871723e-02  1.2619725800596664e-02  1.2218356988287098e-02  1.3015242680083703e-02  1.2711878132581551e-02  1.2711083412439960e-02  1.3490513570804993e-02  1.3420992338910396e-02  1.2673561708964292e-02  1.4267260067384435e-02  2.1159089323586955e-02  2.1604513921488318e-02  2.1499378906186074e-02  2.0822645299358414e-02  2.1269348530311077e-02  2.2462703552553646e-02  1.9740949523151884e-02  1.9889479901818972e-02  2.0577651245741325e-02  3.3269680071543441e-02  3.3168073921134314e-02  3.3080619963910714e-02  3.3172513298481102e-02  3.3060006982756525e-02  3.2866268731879422e-02  3.2795555097332521e-02  3.2861995363157162e-02  3.2826321580599109e-02  3.2802693704716994e-02  3.2752774792479261e-02  3.2765334227340098e-02  3.4077789607287946e-02  3.3933028216085383e-02  3.4007933051482850e-02  3.4152753241168170e-02  3.3815228965815562e-02  3.3697535798890337e-02  3.3822614397447381e-02  3.3719852523736903e-02  3.3853648818665358e-02  3.3773680526987392e-02  3.4342499142480984e-02  3.3638527782886438e-02  3.3710842477366318e-02  3.3554835487431364e-02  3.3778013876984328e-02  3.3864814161334134e-02  3.2784029839405072e-02  3.2876368136193067e-02  3.4027994007108937e-02  3.4199418772054548e-02  3.4158354485739680e-02  3.4067349776006603e-02  3.4439530296468568e-02  3.6181554143869823e-02  3.6626876785023341e-02  3.6528842372014959e-02  3.6272606782229752e-02  3.6023241813811266e-02  3.6291652273797020e-02  3.2303772941348438e-02  3.1201408162777496e-02  3.1184433319280370e-02  8.3587792949055169e-03  3.4728457823551551e-02  3.4896378384998560e-02  3.6225510293917476e-02  5.5728767867134106e-03  6.7135632248064925e-03  5.9450574579245075e-03  6.5705675034739295e-03  6.4049247352482496e-03  4.1870317585886413e-02  4.2418688306599950e-02  4.2055482857029931e-02  4.2273785794424167e-02  4.2476917288725831e-02  4.1652775677844443e-02  4.1978532744210380e-02  3.5756229710815171e-02  3.6984580460987015e-02  3.6070792693209383e-02  3.8195057442943152e-02  3.7889389245226973e-02  3.7341965265535626e-02  4.0512258194119723e-02  4.1327176508310234e-02  4.0990100797672360e-02  4.0878343460559220e-02  4.0159471367941742e-02  3.9890674015223358e-02  4.0529210737368877e-02  3.8293135500221981e-02  3.8972194044688595e-02  3.7693608352464755e-02  3.6297044647571067e-02  3.6982881614793475e-02  3.5539195684499460e-02  3.9415149194931637e-02  3.9796046208561350e-02  3.8983784234406835e-02  3.7198115283059406e-02  3.8414149714385108e-02  2.3798848830152701e-02  2.4062969593514543e-02  2.3796399668744837e-02  2.6808998023371822e-02  2.7059299677533819e-02  2.7999500618739383e-02  2.6416976338458818e-02  2.5327178305421593e-02  2.5546908595923096e-02  2.5553934123054647e-02  2.5360561148050971e-02  2.5080683296501670e-02  2.5014018025935648e-02  2.7674656979634882e-02  2.8334496192617898e-02  2.7458152235425620e-02  2.7148654265448355e-02  2.7922599254931749e-02  2.6148496582494039e-02  2.5813000911995287e-02  2.5619984367495099e-02  2.6883767960748480e-02  2.6443908101360998e-02  2.3436970487650196e-02  2.3868032947935620e-02  2.3719424308831314e-02  2.3595503118969782e-02  2.3226767657433374e-02  2.3117032360307266e-02  2.4896123613774451e-02  2.4499812958655443e-02  2.4613614448977365e-02  2.0084779325567990e-02  1.9249379871372183e-02  1.9371346029343567e-02  2.4379819714971634e-02  2.4309031495487132e-02  4.1724408064987610e-02  4.2559252969647444e-02  4.2847738276727554e-02  4.2722645228176905e-02  4.2196543603459397e-02  4.3050218317053295e-02  4.3046261297409245e-02  4.2904637241410741e-02  4.2632016099901020e-02  4.2726579822057208e-02  4.2698550701009239e-02  4.2047159820049786e-02  4.2373265953484437e-02  4.2080814694639847e-02  4.2354201903661369e-02  4.1057323819148193e-02  4.0445645159811285e-02  3.7661718321515346e-02  3.6792288811559645e-02  3.6819019107812399e-02  4.1710388603003780e-02  4.1925073831344369e-02  4.1770379092961323e-02  4.2497877297404042e-02  8.9969465595937069e-03  3.4826116412098547e-02  3.4741485542877606e-02  3.4803840582025555e-02  3.5088863772034296e-02  3.5084680395487740e-02  3.5005017604308380e-02  3.4966165404329390e-02  3.4432909593787239e-02  3.4487681722947451e-02  3.4393548206592565e-02  3.4327712273541332e-02  3.4370648356834552e-02  3.4470434046113649e-02  3.4227889493659389e-02  3.4293768639929993e-02  3.4164012922841012e-02  3.4349308234796039e-02  3.4230818442782557e-02  3.4353282931583622e-02  3.4091201853085763e-02  3.4024549418929309e-02  3.5210230604756962e-02  3.5027521291804475e-02  3.3891261132081275e-02  3.8606336556787829e-02  3.7590193507786467e-02  3.8658519927152642e-02  3.8719901369423014e-02  3.9659932612576450e-02  3.7673433055662550e-02  4.0828947254095693e-02  3.9878989693649419e-02  4.0172643153401043e-02  2.6778742330952787e-02  2.6309728800340288e-02  2.7139583714559150e-02  3.2700036356116645e-02  3.3391002700190998e-02  3.4160041572246343e-02  3.6697956844023362e-02  3.6536161171642816e-02  3.6706025940063704e-02  3.6935276590055743e-02  3.6827587758364318e-02  3.7075503932505888e-02  3.6777114519259357e-02  3.6716030076954849e-02  3.6915501050279985e-02  3.9489198551806680e-02  3.9805358914899495e-02  3.9605779965482306e-02  3.9286752135468624e-02  3.9201114516386228e-02  3.9044730789312372e-02  3.8772650718107718e-02  3.8703878234118312e-02  3.8295827939997550e-02  3.8106989067307848e-02  3.7932916213838493e-02  3.7740140956218526e-02  3.7807934083121296e-02  3.8105927541460700e-02  3.8158739502490421e-02  3.7850968041801950e-02  3.5532728680416951e-02  3.5660229662918243e-02  3.5473263596618190e-02  3.5586168291384938e-02  3.5699002143803914e-02  3.6101357666615284e-02  3.5484583347839951e-02  3.5336234021906707e-02  3.5882556103569198e-02  3.6599330659429205e-02  3.6477728238008558e-02  3.6489367847075370e-02  3.6329924221717082e-02  3.6225760565151442e-02  3.5293372417952856e-02  3.5757203932966733e-02  3.5568625618447848e-02  3.6028294113717038e-02  3.6130918940167407e-02  3.6230655053449780e-02  3.6458617736998378e-02  3.5912390629049884e-02  3.5827219136949001e-02  3.2237670984658406e-02  3.2161533642273615e-02  3.1926117291456280e-02  2.6421857764307919e-02  2.6425405693647330e-02  2.6253226966213884e-02  3.2770691526302874e-02  3.2762551372643292e-02  3.3215804281073874e-02  3.3537301576497369e-02  3.0661419429631274e-02  3.0643031949941439e-02  3.0489277746826689e-02  3.0658141226132977e-02  3.0821034462132097e-02  3.0196822102366322e-02  3.0502201682954418e-02  3.1363304829490173e-02  3.1329289714868126e-02  3.1525644486667448e-02  3.1099291276098156e-02  3.0975246145440977e-02  3.0815493826985903e-02  3.0974611955548497e-02  3.1048043966257838e-02  3.1224690515392804e-02  2.9728968147119249e-02  2.9788837214927390e-02  2.9937757503244199e-02  2.9668582401223900e-02  3.0019747923910857e-02  2.9898296968392510e-02  3.0252533382357623e-02  3.0460789224779062e-02  3.0376525543693252e-02  3.0555438109236839e-02  3.0255405166296732e-02  3.0451270697729838e-02  2.9719296267017453e-02  2.9463517195421386e-02  2.8401970280265823e-02  2.8661212770069836e-02  2.8508823979224194e-02  2.8261763978892528e-02  2.9284403260257320e-02  2.9027317154316803e-02  2.9225701093315445e-02  2.8026570541406115e-02  2.8276457882728718e-02  2.8058170829230109e-02  2.8509991588855789e-02  2.8240358389963100e-02  2.8961565295161355e-02  2.8890012595248496e-02  2.8771573613559885e-02  2.8996459086741810e-02  2.9567793095962931e-02  2.8554643673727023e-02  2.8622572070507103e-02  3.0780335564452234e-02  3.0646920748506140e-02  3.0299287790197957e-02  3.0623249118861218e-02  3.0446862572196507e-02  2.6271263678008729e-02  2.6471846485299592e-02  3.0796094341073183e-02  3.0949522933485137e-02  3.0610900242226898e-02  3.1786368884909669e-02  3.1712207945037173e-02  3.1527698470624629e-02  3.2576226275544476e-02  3.2353992579762333e-02  3.2388330307008190e-02  3.0904945068525737e-02  3.1396369602882175e-02  3.1162109296914597e-02  3.1305750974867833e-02  3.2931285424785246e-02  3.2966014630625179e-02  3.2669624432963257e-02  3.2644572797621910e-02  3.2488505436006031e-02  3.4563076941553000e-02  3.4552390535154090e-02  3.4634981328107182e-02  3.4561477519608294e-02  3.4603559707060326e-02  3.3669901129032141e-02  3.3570697058567876e-02  3.3491634690498220e-02  3.3361548896038505e-02  3.3645890356278366e-02  3.3613011024889720e-02  3.3594163077135600e-02  3.4800541186635496e-02  3.4804276666237761e-02  3.4873798841942499e-02  3.4741661383817797e-02  3.4697035999181905e-02  3.4665204367867762e-02  3.4649127218049074e-02  3.4439590343607399e-02  3.4377033558600938e-02  3.4465397672970598e-02  3.4513568429115779e-02  3.4549170767877932e-02  3.4582885760121834e-02  3.4484775733350057e-02  3.4502299739258287e-02  3.4637970367419516e-02  3.4724184322223413e-02  3.4657341016025675e-02  3.4941465172174668e-02  3.4861683583197210e-02  3.4797801788372038e-02  3.4396456945011353e-02  3.4351664831876280e-02  3.3930884779469137e-02  3.6080978489717572e-02  3.6110921397785392e-02  3.5997910264807136e-02  3.5954119719133600e-02  3.4429099087629492e-02  3.4595302382071987e-02  3.4383336323369838e-02  3.4471536697740092e-02  3.4521339703483138e-02  3.4332732874047034e-02  3.4240516850442132e-02  3.4712756429185018e-02  3.4818169901974533e-02  3.4948852891034270e-02  3.5128972562978721e-02  3.5079400433013330e-02  3.4652927424789967e-02  3.4669089223046137e-02  3.4691367187085126e-02  3.4821742261722528e-02  3.4121305736909233e-02  3.3975634358223719e-02  3.4015703431294557e-02  3.4057359841790168e-02  3.3894623575938539e-02  3.3438003441348327e-02  3.3563020423556515e-02  3.3512914878880001e-02  3.3834632517043224e-02  3.3973038565949722e-02  3.3757664527234325e-02  3.3649007729849342e-02  3.3374307400314572e-02  3.3708186884876902e-02  3.3598362304200435e-02  3.3628204185013943e-02  3.3604635755565049e-02  3.3028804058199232e-02  3.2938951888017216e-02  3.3133323776564610e-02  3.3305282822131695e-02  3.3221802283536168e-02  3.3349047685286563e-02  3.4369857498236650e-03  2.154019417