<?xml version="1.0"?>
<VTKFile type="UnstructuredGrid"  version="0.1"  >
<UnstructuredGrid>
<Piece  NumberOfPoints="6340" NumberOfCells="12376">
<Points>
<DataArray  type="Float64"  NumberOfComponents="3"  format="ascii">-0.01941600069403648 0.02070700004696846 0  -0.02013899944722652 0.02136900089681149 0  -0.02034999988973141 0.02037999965250492 0  -0.02096500061452389 0.02115000039339066 0  -0.01964100077748299 0.01978800073266029 0  -0.01926499977707863 0.02158199995756149 0  -0.01980100013315678 0.02232700027525425 0  -0.01932800002396107 0.02313799969851971 0  -0.02032499946653843 0.02309600077569485 0  -0.018800999969244 0.02230600081384182 0  -0.008589999750256538 0.01787200011312962 0  -0.009216000325977802 0.01875600032508373 0  -0.00954699981957674 0.01781800016760826 0  -0.01017899997532368 0.01874100044369698 0  -0.0262449998408556 0.07813400030136108 0  -0.02721199952065945 0.07866600155830383 0  -0.02735500037670135 0.07786999642848969 0  -0.02682599984109402 0.07130900025367737 0  -0.02743499912321568 0.07213299721479416 0  -0.02766199968755245 0.07120800018310547 0  -0.02838999964296818 0.07174000144004822 0  -0.0130799999460578 0.08917500078678131 0  -0.01405199989676476 0.0891060009598732 0  -0.01348999980837107 0.08831000328063965 0  -0.02057000063359737 0.08369199931621552 0  -0.01957100071012974 0.08375799655914307 0  -0.02012900076806545 0.08455300331115723 0  -0.02001399919390678 0.0828929990530014 0  -0.02221699990332127 0.0246530007570982 0  -0.02125800028443336 0.02470899932086468 0  -0.02171500027179718 0.02552999928593636 0  -0.02212700061500072 0.02635600045323372 0  -0.02269300073385239 0.02548599988222122 0  -0.02074800059199333 0.02559000067412853 0  -0.02029800042510033 0.02475499920547009 0  -0.0193290002644062 0.02479599975049496 0  -0.01979099959135056 0.02562700025737286 0  -0.02175300009548664 0.02381099946796894 0  -0.02280499972403049 0.02381400018930435 0  -0.02209999971091747 0.02256999909877777 0  -0.02154899947345257 0.02188000082969666 0  -0.02128499932587147 0.02296300046145916 0  -0.02071000076830387 0.02217300049960613 0  -0.01609900034964085 0.02200599946081638 0  -0.01660400070250034 0.02112499997019768 0  -0.01562700048089027 0.02112000063061714 0  -0.0170070007443428 0.02210699953138828 0  -0.01794799976050854 0.02211499959230423 0  -0.01746100001037121 0.02299500070512295 0  0.04404599964618683 0.08276599645614624 0  0.04368700087070465 0.08186200261116028 0  0.04505100101232529 0.08214999735355377 0  0.04673900082707405 0.09436500072479248 0  0.04756699874997139 0.09474699944257736 0  0.0464709997177124 0.09523700177669525 0  0.02883600071072578 0.1031259968876839 0  0.02895900048315525 0.1022119969129562 0  0.0299139991402626 0.1026429980993271 0  0.0278450008481741 0.1035690009593964 0  0.02794799953699112 0.102461002767086 0  -0.006014000158756971 0.09828200191259384 0  -0.005011999979615211 0.09835200011730194 0  -0.005584000144153833 0.09916099905967712 0  -0.0045779999345541 0.09922900050878525 0  -0.01833700016140938 0.09875699877738953 0  -0.01877599954605103 0.09800200164318085 0  -0.01763200014829636 0.09817799925804138 0  -0.01934700086712837 0.09890100359916687 0  -0.01390600018203259 0.1053040027618408 0  -0.01409399975091219 0.1062169969081879 0  -0.01477499958127737 0.1054119989275932 0  -0.01035699993371964 0.09707000106573105 0  -0.009375999681651592 0.09715600311756134 0  -0.009948000311851501 0.09796500205993652 0  -0.01133999973535538 0.09697899967432022 0  -0.01076800003647804 0.09617099910974503 0  -0.01175099983811378 0.0960799977183342 0  -0.0140389995649457 0.09926000237464905 0  -0.01456900034099817 0.1000360026955605 0  -0.01505700033158064 0.09915400296449661 0  -0.0129009997472167 0.0976869985461235 0  -0.01389800012111664 0.09759999811649323 0  -0.01331300009042025 0.09680099785327911 0  0.01319599989801645 0.09417799860239029 0  0.01426700036972761 0.09415899962186813 0  0.01369599997997284 0.09499400109052658 0  0.007991000078618526 0.07857900112867355 0  0.008504999801516533 0.07770500332117081 0  0.009060000069439411 0.07855899631977081 0  -0.008329999633133411 0.01696999929845333 0  -0.007546000182628632 0.01715599931776524 0  -0.009158000349998474 0.01688399910926819 0  -0.01002200040966272 0.01679399982094765 0  -0.01348000019788742 0.01683999970555305 0  -0.01369899976998568 0.01793600060045719 0  -0.01429599989205599 0.0170499999076128 0  -0.01292399968951941 0.01773199997842312 0  -0.01292700041085482 0.01877100020647049 0  -0.01214499957859516 0.01788699999451637 0  -0.01242600008845329 0.02170900069177151 0  -0.01290499977767467 0.02075700089335442 0  -0.01201300043612719 0.02077800035476685 0  -0.01159199979156256 0.01989899948239326 0  -0.01105200033634901 0.02073399908840656 0  -0.01249099988490343 0.01978500001132488 0  -0.013327999971807 0.02174299955368042 0  -0.01470400020480156 0.02099199965596199 0  -0.01515099965035915 0.02195700071752071 0  -0.01423299964517355 0.02184600010514259 0  -0.009672000072896481 0.01967900060117245 0  -0.01119100023061037 0.03074399940669537 0  -0.01169000007212162 0.02988000027835369 0  -0.01074600033462048 0.02980699948966503 0  -0.006020999979227781 0.02933800034224987 0  -0.006471000146120787 0.03030199930071831 0  -0.006969000212848186 0.02944600023329258 0  -0.008751999586820602 0.01970699988305569 0  -0.006391999777406454 0.01904400065541267 0  -0.007329999934881926 0.01892299950122833 0  -0.006603999994695187 0.01819700002670288 0  -0.006697999779134989 0.0173569992184639 0  -0.005760000087320805 0.01758000068366528 0  0.04865299910306931 0.0904259979724884 0  0.04955599829554558 0.08993600308895111 0  0.04928600043058395 0.09110700339078903 0  0.0481799989938736 0.0912339985370636 0  0.01609200052917004 0.05874599888920784 0  0.01714199967682362 0.05863500013947487 0  0.01668200083076954 0.05953399837017059 0  0.02959099970757961 0.04358600080013275 0  0.03004300035536289 0.04252900183200836 0  0.03054999932646751 0.04325399920344353 0  0.03194399923086166 0.04779599979519844 0  0.03286400064826012 0.04711699858307838 0  0.03325299918651581 0.04787600040435791 0  0.03183100000023842 0.05131300166249275 0  0.03084499947726727 0.05137600004673004 0  0.0313589982688427 0.05042900145053864 0  0.03086799941956997 0.04959399998188019 0  0.03191699832677841 0.04948500171303749 0  0.03033800050616264 0.05052699893712997 0  0.02983300015330315 0.05146300047636032 0  0.0298020001500845 0.0497170016169548 0  0.02920899912714958 0.0489410012960434 0  0.02873199991881847 0.04983200132846832 0  0.02812799997627735 0.04904999956488609 0  0.04601899906992912 0.09277199953794479 0  0.04490900039672852 0.0927949994802475 0  0.0454929992556572 0.09197299927473068 0  0.04440499842166901 0.0919639989733696 0  0.007083999924361706 0.02392400056123734 0  0.007852000184357166 0.02440099976956844 0  0.007110000122338533 0.0250059999525547 0  0.007945000194013119 0.02537799999117851 0  0.02766199968755245 0.04994200170040131 0  0.02354400046169758 0.05203799903392792 0  0.02308199927210808 0.05293599888682365 0  0.0224820002913475 0.05213699862360954 0  0.02414100058376789 0.05283800140023232 0  0.03036900050938129 0.05231799930334091 0  0.01834600046277046 0.03520600125193596 0  0.01744100078940392 0.03505999967455864 0  0.01784900017082691 0.03416400030255318 0  0.01285700034350157 0.04045300185680389 0  0.01190000027418137 0.04044099897146225 0  0.01235600002110004 0.03954900056123734 0  0.01139799971133471 0.03953799977898598 0  0.01094300020486116 0.0404289998114109 0  0.01089700032025576 0.03863200172781944 0  0.01185400038957596 0.03864600136876106 0  0.01240199990570545 0.0413459986448288 0  -0.02824800089001656 0.07263699918985367 0  -0.02713000029325485 0.07298099994659424 0  -0.02811799943447113 0.07345700263977051 0  -0.02645800076425076 0.07222899794578552 0  -0.02605099976062775 0.07308000326156616 0  -0.02500499971210957 0.07318300008773804 0  -0.02547400072216988 0.07397300004959106 0  -0.02443699911236763 0.07240299880504608 0  -0.02397999912500381 0.07326900213956833 0  -0.02448800019919872 0.07405900210142136 0  -0.02850200049579144 0.07080800086259842 0  -0.01968199945986271 0.08540999889373779 0  -0.02068299986422062 0.08534500002861023 0  -0.01894900016486645 0.09463399648666382 0  -0.01992800086736679 0.09460599720478058 0  -0.01936299912631512 0.09379400312900543 0  -0.02033800072968006 0.09376999735832214 0  -0.01977399922907352 0.09295199811458588 0  -0.01783799938857555 0.09734100103378296 0  -0.01689100079238415 0.09740100055932999 0  -0.01657599955797195 0.09825299680233002 0  -0.01446299999952316 0.08824300020933151 0  -0.01193299982696772 0.08176100254058838 0  -0.01093799993395805 0.08182699978351593 0  -0.01149499975144863 0.08262400329113007 0  -0.01107299979776144 0.08348800241947174 0  -0.01051000040024519 0.0826909989118576 0  -0.01582000032067299 0.07981199771165848 0  -0.01626699976623058 0.07893999665975571 0  -0.01527099963277578 0.0790100023150444 0  -0.01427500043064356 0.0790800005197525 0  -0.01472000032663345 0.07820799946784973 0  -0.01901599951088428 0.08296000212430954 0  -0.01846599951386452 0.08215600252151489 0  -0.01946599967777729 0.08208800107240677 0  -0.0204670000821352 0.08202099800109863 0  -0.02503300085663795 0.0748559981584549 0  -0.02559299953281879 0.07734899967908859 0  -0.02519799955189228 0.07820899784564972 0  -0.02317900024354458 0.02447200007736683 0  -0.02353999949991703 0.02511000074446201 0  -0.02381299994885921 0.02575499936938286 0  -0.02410599961876869 0.0264509990811348 0  -0.02307499945163727 0.02635299973189831 0  -0.01982600055634975 0.02394100092351437 0  -0.01884800009429455 0.02397000044584274 0  -0.02080699987709522 0.02388099953532219 0  -0.02244199998676777 0.02317300066351891 0  -0.01755600050091743 0.01828699931502342 0  -0.01718099974095821 0.01905100047588348 0  -0.01829000003635883 0.01865999959409237 0  -0.01680300012230873 0.0179040003567934 0  -0.01835899986326694 0.02310699969530106 0  -0.01652799919
[...]
<PointData  Scalars="pressure"> 
<DataArray  type="Float64"  Name="pressure"  format="ascii">8.0778918595948448e-02  8.0765635218071952e-02  8.0807605673734823e-02  8.0770999308761526e-02  8.0815851950471002e-02  8.0761139243991670e-02  8.0738903457690553e-02  8.0707446190457013e-02  8.0692620590679762e-02  8.0738039257805663e-02  7.9491368155925210e-02  7.9496274845991061e-02  7.9628563963532420e-02  7.9643969485301960e-02  6.3767488482016549e-02  6.3775291863488820e-02  6.4118212852156770e-02  6.6929208728791129e-02  6.6706694021868615e-02  6.7000328321723104e-02  6.6860345385903575e-02  4.6311088418684553e-02  4.7670185162228068e-02  4.7552873704232321e-02  5.8511564346176145e-02  5.7841021861508982e-02  5.7574707308748516e-02  5.8762654944105451e-02  8.0461182335489961e-02  8.0521690043701299e-02  8.0395243629483304e-02  8.0242895943317599e-02  8.0315810901311513e-02  8.0453342939440592e-02  8.0567036827014687e-02  8.0612765076145940e-02  8.0518254656939459e-02  8.0576965715980553e-02  8.0524708685159402e-02  8.0665585498241710e-02  8.0725225447768903e-02  8.0662858996667100e-02  8.0726329642647310e-02  8.0626020965412007e-02  8.0653592897839660e-02  8.0567554672536609e-02  8.0686792493981419e-02  8.0725575578862591e-02  8.0701332884641000e-02  3.6894155002755266e-02  3.6644863271431405e-02  3.7497571014898437e-02  3.4310526557115015e-02  3.3774685876654172e-02  3.4329797098721380e-02  5.2011119305603835e-02  5.1860299630479355e-02  5.1309155629667168e-02  5.2460279480417697e-02  5.2427454264037568e-02  3.2789243347064553e-02  3.2554832149393663e-02  3.2529061930214660e-02  3.2436770096718005e-02  4.2879785382432790e-02  4.3809001609558557e-02  4.2760119173526727e-02  4.3283741883976726e-02  3.6878087140145330e-02  3.6891532014553863e-02  3.7136786227530902e-02  3.6258802562221026e-02  3.5309416235175861e-02  3.5332408497558976e-02  3.7330307497340273e-02  3.7400656061652424e-02  3.8491444400286963e-02  3.8702649324902326e-02  3.8797881909251375e-02  3.9714993571123174e-02  3.8473141139414191e-02  3.9613353854049266e-02  3.9587450526952304e-02  3.6194735007302796e-02  3.7578846615496701e-02  3.9211725776694198e-02  8.0791502122571496e-04  8.9091742535347268e-04  2.4194680166155641e-04  7.9581230537509470e-02  7.9422533448331195e-02  7.9692975906681410e-02  7.9755024288954340e-02  8.0368139473390249e-02  8.0323041235282555e-02  8.0454201025329686e-02  8.0198857843498714e-02  8.0159957531335202e-02  8.0083461926879734e-02  8.0156514973010878e-02  8.0199064190934644e-02  8.0048445714851632e-02  7.9944498234396769e-02  7.9870716185343776e-02  8.0104481470889999e-02  8.0302024709226982e-02  8.0463366825390181e-02  8.0539765555570381e-02  8.0430210097198307e-02  7.9583684705974017e-02  8.0703866299360369e-02  8.0694378294996677e-02  8.0542789528999736e-02  7.8963162662256947e-02  7.9219718248584536e-02  7.9344448480666546e-02  7.9416797455857391e-02  7.8923034534575914e-02  7.9130794739209642e-02  7.9062889687002924e-02  7.9219611837205287e-02  7.8933288388990608e-02  3.4224832654595465e-02  3.4073000921720276e-02  3.3734247886894990e-02  3.4198154876770887e-02  3.1821090588793323e-02  3.2990342918891878e-02  3.0760295994691982e-02  5.7368285408429018e-02  5.7814547960439028e-02  5.7466699435450366e-02  5.5243305976218370e-02  5.5525603758754330e-02  5.5234216232609171e-02  5.2753630768205523e-02  5.2615942425563639e-02  5.3365311099195747e-02  5.3958136576436416e-02  5.3985123223287218e-02  5.3209485359491840e-02  5.2354777591676310e-02  5.3782883049469106e-02  5.4329626003631323e-02  5.3514959622912653e-02  5.4068459625688334e-02  3.4966705570117190e-02  3.5597450660742297e-02  3.5372475525819611e-02  3.5979399757395863e-02  7.4311464000792415e-02  7.3888670228479225e-02  7.3943322579660214e-02  7.3537258890747997e-02  5.3146436956082677e-02  4.8832173659902375e-02  4.7341411392132202e-02  4.8087032537842397e-02  4.8146455890638484e-02  5.1757990398769174e-02  6.4316514917280493e-02  6.4796386534412581e-02  6.5031645060227586e-02  6.2422945011591957e-02  6.2766165402697666e-02  6.3605331230247641e-02  6.4018976555326734e-02  6.3194948284707411e-02  6.5213595589858897e-02  6.4755866224953079e-02  6.1497998054261906e-02  6.6595354248683375e-02  6.6322559235524520e-02  6.6392298671635042e-02  6.6515031775343736e-02  6.6129751780685531e-02  6.5831210326686818e-02  6.5626320107462305e-02  6.5919359286920165e-02  6.5459908830806907e-02  6.5331273434040299e-02  6.7335366867280297e-02  5.6599979719996946e-02  5.7234386314310368e-02  4.7153164516196978e-02  4.7930228546855608e-02  4.8299160080240156e-02  4.9034587853428291e-02  4.9437227378619525e-02  4.3643897352244006e-02  4.2760440354012413e-02  4.1776788750923839e-02  4.8908596336637224e-02  4.7833108665826393e-02  4.5562097677386323e-02  4.6779580186133908e-02  4.5788682581423601e-02  4.4700880605224751e-02  5.5755609094275835e-02  5.6653748978307591e-02  5.4985267065401300e-02  5.3047897960357887e-02  5.3965836165209058e-02  5.8017896494478291e-02  5.8056804274766269e-02  5.8933890321683564e-02  5.9647810592883606e-02  6.5157832849479014e-02  6.4149539479280912e-02  6.3596481925223533e-02  8.0423417676393161e-02  8.0308873657616853e-02  8.0192980600237371e-02  8.0042722037691555e-02  8.0147608398785708e-02  8.0651126656258842e-02  8.0677248399211712e-02  8.0621740662709607e-02  8.0607072808753150e-02  8.0731383781313310e-02  8.0684880402801668e-02  8.0778073769003700e-02  8.0686137881277653e-02  8.0713911997752269e-02  8.0665095977655296e-02  8.0648088969124648e-02  8.0681292280939371e-02  8.0801185137058223e-02  8.0808480455528353e-02  8.0847421043459419e-02  7.9988449793759020e-02  7.9870946029516429e-02  7.9806911438356429e-02  8.0026043047336515e-02  7.9645274676227923e-02  7.9727966797377120e-02  7.9739544669602355e-02  7.9674943655623595e-02  7.9941497195049005e-02  3.3153953901321032e-02  3.2391589599739770e-02  3.2865995733551825e-02  3.6029344785586559e-02  3.5613509733463319e-02  3.6140784301061615e-02  3.8468390439384770e-02  3.8937105474498003e-02  3.8523886264480285e-02  3.7327842457909439e-02  3.5641909231729024e-02  3.6436061925403995e-02  3.6229888805791435e-02  3.5549430476838784e-02  3.5161960027007194e-02  3.4729140354038054e-02  3.6639956760620464e-02  3.6352596576442561e-02  3.6987361359469020e-02  3.6705647351336149e-02  3.4600151937639226e-02  3.4910358869721984e-02  3.5559275223726955e-02  3.6246403281109708e-02  3.7056499386164718e-02  3.6613356470283957e-02  3.5197938811779586e-02  5.2920967545674408e-02  5.2891176055145095e-02  5.3115589054263522e-02  5.2916286659141956e-02  5.2745571338692274e-02  5.3040635834224373e-02  5.2776388182127133e-02  3.3743659618945772e-02  3.3890287668946931e-02  3.4491397558394324e-02  3.4491455515854648e-02  3.2931122708969786e-02  3.4191731952294378e-02  3.3700612320242705e-02  3.4425779214286467e-02  3.2508540323986222e-02  4.2140196239707529e-02  3.7741545253996756e-02  3.8400856006705078e-02  3.7900287577591590e-02  3.7623545903663819e-02  3.7783538922193251e-02  3.6852528427205086e-02  3.7274287343630412e-02  3.7105084908696219e-02  3.6581365108156551e-02  3.6496719705128564e-02  3.7326486610762197e-02  3.6061921713353214e-02  4.0031719357451249e-02  3.9959526055431467e-02  4.1227408674541194e-02  4.0726483309449238e-02  3.6339821226383122e-02  3.4650636100223127e-02  3.4184826308175376e-02  3.7461986776366155e-02  3.8016220832786343e-02  3.7266451445517712e-02  3.7016965679678090e-02  3.6527301896406204e-02  3.6319722429575929e-02  3.7376124174121658e-02  3.6493358911404115e-02  3.8428671977213280e-02  3.6738830921915940e-02  3.5799223541668965e-02  3.7691635072172602e-02  3.8100251179093610e-02  3.9692732315612239e-02  3.9675309771802003e-02  3.7510644863960094e-02  3.7942090552353924e-02  3.7104707298618783e-02  3.7998648167771293e-02  3.7204719168062728e-02  3.4832350384914633e-02  3.4568312084621952e-02  3.5424982167403717e-02  3.5718526835891891e-02  4.3200417083221164e-02  4.3224617891720919e-02  4.3597932184770982e-02  4.2818603744586597e-02  4.2894042046884920e-02  4.2141200550585817e-02  4.2455483500455138e-02  4.2070428513892304e-02  4.2513104845065805e-02  4.2223354637286270e-02  5.1224709931699981e-02  5.1745379370841407e-02  5.1779725284970934e-02  5.1178946690522531e-02  5.0787462401168770e-02  4.5161765802032780e-02  4.4478210622628883e-02  4.4713240643089375e-02  4.2136615771551672e-02  4.1499314296310680e-02  4.2458830560662221e-02  3.8256748089528204e-02  3.9350874739792763e-02  3.9043324392613092e-02  3.7614828037509235e-02  4.0399262234873091e-02  3.8909579792046657e-02  3.5936850949391225e-02  3.7300374143933432e-02  4.0277573086084116e-02  1.3298859034799847e-03  2.2965369606218582e-03  1.9478374238765250e-03  1.8729774520067043e-03  1.1457056716169950e-03  6.7738495390462922e-03  6.7514778638635142e-03  5.4913704399153843e-03  3.4196610885104888e-02  3.5173816459891497e-02  3.6308521509480843e-02  4.2822598068551584e-02  4.1805029683512893e-02  4.3551195479511924e-02  4.2566911942754471e-02  4.8979339292180471e-02  4.7395338803710683e-02  4.8326842044131631e-02  8.0686700840689962e-02  8.0768099350392281e-02  8.0615146104682789e-02  3.0387994158522759e-02  3.1452072024542525e-02  3.2630571398691320e-02  2.6372394366399085e-02  2.7984852704797229e-02  2.5687845660558609e-02  2.3334333740209053e-02  2.5096432197053577e-02  3.9137549081619608e-02  3.7057959800710895e-02  3.8022951780496118e-02  3.5414556438283423e-02  3.4459524297452727e-02  3.3752850392151944e-02  3.4746556405595999e-02  3.4983364255800044e-02  3.4229217156549911e-02  3.4656592195949867e-02  3.5412903485957395e-02  3.6165828181592058e-02  3.5650962590539063e-02  3.4636825814960505e-02  3.4626215672308912e-02  3.5524100514054482e-02  3.3959202590217223e-02  4.1156503065827701e-02  3.9700340991928124e-02  4.2351435776298629e-02  4.1470577902135181e-02  3.9989406901918823e-02  4.1143896821324036e-02  3.1076365404193184e-02  2.9229060411129847e-02  2.7945610744087152e-02  2.6058953364306053e-02  3.5698325693858904e-02  3.4217034753585486e-02  2.7569009567298752e-02  3.0798287361252726e-02  3.4287986798934605e-02  4.0640776210867813e-02  4.5842003180001166e-02  4.6854810470937799e-02  4.4666816700651507e-02  4.3397990427930071e-02  4.0892533823981218e-02  0.0000000000000000e+00  1.2157808158025363e-04  3.2200773384784970e-04  2.3503161552394097e-04  8.0979555437285522e-04  5.5611169047233705e-04  2.9234489459600312e-03  1.5309598954425102e-03  1.8391624880662316e-03  8.0501396248678414e-02  8.0614880713750808e-02  8.0536884628594707e-02  8.0524827645939684e-02  8.0248672244334601e-02  8.0223103126047690e-02  8.0170704595748737e-02  7.9825390240955030e-02  7.9827333614971269e-02  7.9920696988692502e-02  7.9913424128615018e-02  7.9702627073373528e-02  8.0775698726867101e-02  8.0667821726062613e-02  8.0735114812344341e-02  8.0789221584954329e-02  8.0346197638720987e-02  8.0125189053543322e-02  8.0092455588478884e-02  7.9849466294456023e-02  7.9787769604762873e-02  7.9527438010737889e-02  7.8817304620799417e-02  7.8108542810466031e-02  7.8271093392875996e-02  7.8375746315057976e-02  7.8435921368948044e-02  7.8164235355693973e-02  7.9314853195177171e-02  7.9223407164282167e-02  6.7316059486446117e-02  6.7498081061229009e-02  6.7913699759912030e-02  6.7722923429384380e-02  6.7872127771042984e-02  6.6896853454334382e-02  6.8852952896045552e-02  6.8413451605983638e-02  6.8608907861436433e-02  6.7632385402058737e-02  6.9009885571159640e-02  4.1043329582819303e-02  3.9865820392784371e-02  3.9882048971008305e-02  3.7069665610906237e-02  4.2949695132016581e-02  4.3049362786936267e-02  4.4183449637170871e-02  3.4513940933398726e-02  3.5633987477103127e-02  3.5406421532966338e-02  3.5265496883679789e-02  3.5041036025414640e-02  5.1182622694554425e-02  5.2074635058002111e-02  5.1289322864981765e-02  5.1898296537073979e-02  5.2229173676537420e-02  5.0994731990089553e-02  5.1592397863353956e-02  4.4264245326274432e-02  4.5548535080864400e-02  4.4558414102605241e-02  4.6742332658067182e-02  4.6564398725584662e-02  4.5806070508028908e-02  5.0132927884812536e-02  5.1150695389063514e-02  5.0507687597782382e-02  4.9994258709252504e-02  4.8994568272688430e-02  4.8853208465620079e-02  4.9777625161689723e-02  4.7647676024544575e-02  4.8196585733612421e-02  4.6801056285316833e-02  4.5330947580002168e-02  4.5875239027008699e-02  4.4408121355508333e-02  4.7712241593963901e-02  4.8126735109122395e-02  4.7314360315697412e-02  4.5443002581925851e-02  4.6934246366158894e-02  2.0535994422145452e-02  1.8434025643979883e-02  1.8985373732760519e-02  3.4944843115417970e-02  3.5756281550751022e-02  3.6934253375893053e-02  3.5401539472652795e-02  1.3681850016288782e-02  1.2142281713908357e-02  1.3817209803703032e-02  1.2115935430758798e-02  1.3773461104411158e-02  1.5474161079399612e-02  4.0005909657075608e-02  4.1853621241184184e-02  3.9771982301166964e-02  3.8228969488319019e-02  4.0356218316481382e-02  3.4408225373110377e-02  3.4105806641498294e-02  3.2362316131736769e-02  3.7933246952749716e-02  3.6149424478529882e-02  1.8740401235717710e-02  1.6495275266965263e-02  1.7648390327360527e-02  1.7726516565591474e-02  1.9971480523637321e-02  2.1074361570456782e-02  1.2796015017930106e-02  1.4679984601268067e-02  1.3494919943411059e-02  2.9004159967389316e-02  3.0612263935743147e-02  2.9094351478619152e-02  1.6397186167732714e-02  1.8039637427865352e-02  5.6922776228212929e-02  5.2759266823176658e-02  5.3435875543600075e-02  5.2854590727519392e-02  5.2127806039930155e-02  5.4578636003429111e-02  5.4022389817139443e-02  5.3997817310497173e-02  5.5575878820249960e-02  5.4606144524160974e-02  5.3385606037996775e-02  5.6017195818296055e-02  5.5575069057793677e-02  5.5474603563986105e-02  5.5025690570254589e-02  5.3718151899027608e-02  5.2695723278815429e-02  5.2409593431986951e-02  5.1080409684334110e-02  5.1894470283488488e-02  5.6480388479938713e-02  5.6460800902540513e-02  5.2940602497851298e-02  5.4511874932543551e-02  3.5764951334298689e-02  7.3045862108386178e-02  7.3442041284153076e-02  7.2949427229482722e-02  7.1906950628785646e-02  7.2086821521774702e-02  7.2434076664412345e-02  7.2632828935182109e-02  7.6037788014986896e-02  7.6125726874820498e-02  7.6528134505553430e-02  7.6444080671516035e-02  7.5967541716183612e-02  7.5500430794928658e-02  7.7225490349817960e-02  7.7318011699847339e-02  7.7525866402245777e-02  7.6957017935257610e-02  7.7629457085668707e-02  7.7416707699744430e-02  7.7793516424173328e-02  7.7680377690703878e-02  4.6621881070128296e-02  4.5920777643019869e-02  4.5001141355754837e-02  4.9649393346398257e-02  4.8903237590401702e-02  5.0282261136266569e-02  5.0929356079906646e-02  5.1538356705170499e-02  4.9586373335389781e-02  5.0777726992101618e-02  4.9652923562030507e-02  5.0294710643325774e-02  3.3722731194671757e-02  3.2601608315543006e-02  3.4137967857235295e-02  4.1302584214295293e-02  4.2180725146166040e-02  4.2872984203556848e-02  6.5447247793631189e-02  6.5903081481313533e-02  6.5330832981253611e-02  6.4791678234461803e-02  6.4986929369290736e-02  6.4302561262966532e-02  6.4937824541498962e-02  6.5245211142689580e-02  6.4504677608686278e-02  6.0425139246557513e-02  6.0007635682209549e-02  6.0135959242872614e-02  6.0590506672484307e-02  6.0877354807944539e-02  6.0606240170145528e-02  6.0879235891459493e-02  6.1191371001715671e-02  6.2026271311882250e-02  6.2320679122374406e-02  6.2537482969795249e-02  6.2847629559880477e-02  6.2735372528406372e-02  6.2167763030112247e-02  6.1988320383161093e-02  6.2542005704838241e-02  6.9734870771855306e-02  6.8898644195021327e-02  6.9438792345330513e-02  6.8489091436216815e-02  5.6221669536662709e-02  5.6302622575321884e-02  5.4998160351272987e-02  5.6196304499081848e-02  5.7489798709056267e-02  6.5699487404440676e-02  6.3254091466620727e-02  6.2108931480424678e-02  5.8640783086976109e-02  5.7465393843525558e-02  5.7637451906664583e-02  5.8869684218006452e-02  5.7521714038679533e-02  5.8729816974337129e-02  5.9980149702050511e-02  6.1214710749105901e-02  6.0968985087031066e-02  6.0193554817214570e-02  6.1839194989176893e-02  6.3561766884905821e-02  6.3319115092405814e-02  6.2633896558183133e-02  2.9394900029776183e-02  3.0677197607503100e-02  2.7807670278250915e-02  6.4811568822900678e-02  6.4638722968032691e-02  6.5919755231594129e-02  6.6678469247356653e-02  5.1764516443753475e-02  5.2086274259476456e-02  5.0870374691622484e-02  5.1374146141251895e-02  5.2525521499655392e-02  5.4746050920165767e-02  5.6333757579731858e-02  5.3712344007030968e-02  5.3261464699242880e-02  5.4079559166772512e-02  5.6836055233491445e-02  5.3644696453215200e-02  5.2932524006419970e-02  5.3204240859906812e-02  5.5528476431992289e-02  5.6255483621525743e-02  4.4118279335806913e-02  4.4840908689257254e-02  4.5464385318586396e-02  4.5615928010992089e-02  4.6279878347969858e-02  4.6811531867521725e-02  4.7477972390977834e-02  4.8549375107384753e-02  4.7871384870040279e-02  4.8995593289159090e-02  4.8675219521763874e-02  4.9825096929289006e-02  4.6383303790598379e-02  4.4480096250591558e-02  3.8281615182960013e-02  3.9914732902953665e-02  3.9113321334140798e-02  3.7466100698711403e-02  4.6726684222645525e-02  4.4832766845198081e-02  4.5662979736552645e-02  3.7006453142878155e-02  3.9313249809324546e-02  3.7703890005448243e-02  4.0689603339357117e-02  3.8445599472794148e-02  4.3742153878106614e-02  4.1509654843608232e-02  4.0510339561273742e-02  4.1949297680530427e-02  4.6102324915377545e-02  4.1509807992071199e-02  4.3322839936290533e-02  5.7658605923595209e-02  5.6789188740722432e-02  5.5845124794132867e-02  5.7450081148543428e-02  5.6688058079943926e-02  2.9123608368556958e-02  3.2021889235524209e-02  5.8342206460077123e-02  5.8900937452569704e-02  5.7592518631548253e-02  6.2016866975916768e-02  6.1844379201758955e-02  6.1184574372261567e-02  6.4394092387376284e-02  6.3837309006097381e-02  6.3825918976578494e-02  5.7073850988467748e-02  5.9765608844411636e-02  5.8960618144607395e-02  5.9752799939807255e-02  6.4293444620401458e-02  6.4563441655593079e-02  6.3440621639577505e-02  6.2828460560603677e-02  6.3280556813831532e-02  7.9949417289654462e-02  7.9871208081631229e-02  7.9714556473988368e-02  7.9846351397051152e-02  7.9677217972624642e-02  8.0768350125510494e-02  8.0804079825625208e-02  8.0679979609114411e-02  8.0623993981308484e-02  8.0710342146670139e-02  8.0731628020125179e-02  8.0604792263816755e-02  7.8503956306766542e-02  7.8710775935126709e-02  7.8270704765257160e-02  7.8897237136289294e-02  7.9067563139782471e-02  7.9227480185003085e-02  7.9384653803449196e-02  8.0384169615573375e-02  8.0517593930828316e-02  8.0372065289577327e-02  8.0198971464301244e-02  8.0168165781546452e-02  7.9962082585613103e-02  8.0236779991696205e-02  8.0366381400537035e-02  7.9905419778492942e-02  7.9584417344506497e-02  7.9673553822739926e-02  7.7776692497040889e-02  7.8063191501457990e-02  7.8321883032819783e-02  8.0392410410173837e-02  8.0473462258366060e-02  8.0666116725856468e-02  7.1918474903312296e-02  7.1133962582541899e-02  7.1260620821893439e-02  7.1986500139598397e-02  8.0814192804508189e-02  8.0810915786504844e-02  8.0688561012111901e-02  8.0713130006267175e-02  8.0555929675813584e-02  8.0657008252040002e-02  8.0748201350631946e-02  7.9842706691119023e-02  7.9479563407390444e-02  7.9347419246076439e-02  7.9176650556922273e-02  7.8860698090650910e-02  8.0551446775541602e-02  8.0342162673762152e-02  8.0100695981291825e-02  8.0040897444875247e-02  8.0649187396896610e-02  8.0658915502941408e-02  8.0662863387889555e-02  8.0678972112586261e-02  8.0644306682306155e-02  8.0190742072277554e-02  8.0352230057114948e-02  8.0358100768520485e-02  8.0637964716032351e-02  8.0696412534698836e-02  8.0522847834472416e-02  8.0495204745855045e-02  8.0212361312431438e-02  8.0352124938007086e-02  8.0149063897890338e-02  8.0353337814883963e-02  7.9895385113330136e-02  7.9803177669955594e-02  7.9682171767336427e-02  7.9930984623700352e-02  7.9556216450486522e-02  7.9389653734845522e-02  7.9273795438902547e-02  3.2649687184671781e-02  3.179702731