<?xml version="1.0"?>
<VTKFile type="UnstructuredGrid"  version="0.1"  >
<UnstructuredGrid>
<Piece  NumberOfPoints="6340" NumberOfCells="12376">
<Points>
<DataArray  type="Float64"  NumberOfComponents="3"  format="ascii">-0.01935099996626377 0.02066200040280819 0  -0.02009600028395653 0.02133199945092201 0  -0.02030999958515167 0.02033999934792519 0  -0.02091100066900253 0.02112000063061714 0  -0.0195700004696846 0.01974100060760975 0  -0.01920799911022186 0.0215390007942915 0  -0.01975700072944164 0.02229099906980991 0  -0.0192869994789362 0.02310200035572052 0  -0.02026900090277195 0.02307000011205673 0  -0.01874000020325184 0.02226299978792667 0  -0.007772999815642834 0.01815200038254261 0  -0.008462999947369099 0.01898599974811077 0  -0.008789000101387501 0.01804599910974503 0  -0.009487999603152275 0.0189180001616478 0  -0.02648700028657913 0.07642299681901932 0  -0.0274410005658865 0.07689599692821503 0  -0.02761800028383732 0.07609999924898148 0  -0.02694099955260754 0.06975299865007401 0  -0.02761100046336651 0.07051300257444382 0  -0.02778300084173679 0.06960900127887726 0  -0.02855999954044819 0.0700799971818924 0  -0.01297799963504076 0.08761200308799744 0  -0.01389400009065866 0.08753299713134766 0  -0.01331800036132336 0.08682099729776382 0  -0.02035900019109249 0.08222000300884247 0  -0.01934700086712837 0.08233200013637543 0  -0.01985999941825867 0.08306899666786194 0  -0.0198500007390976 0.08147499710321426 0  -0.02206699922680855 0.02463099919259548 0  -0.02116799913346767 0.02469700016081333 0  -0.02157099917531013 0.02550799958407879 0  -0.0219310000538826 0.02632600069046021 0  -0.02248699963092804 0.02545399963855743 0  -0.02066499926149845 0.02557899989187717 0  -0.02023199945688248 0.0247380007058382 0  -0.01927799917757511 0.02476800046861172 0  -0.01972799934446812 0.02560799941420555 0  -0.02165799960494041 0.02379900030791759 0  -0.02264199964702129 0.02378899976611137 0  -0.022019999101758 0.0225600004196167 0  -0.02148099988698959 0.02186099998652935 0  -0.02121499925851822 0.02294700033962727 0  -0.02065400034189224 0.02214699983596802 0  -0.01591899991035461 0.02195600047707558 0  -0.0164330005645752 0.0210730005055666 0  -0.01539300009608269 0.02107599936425686 0  -0.01688599959015846 0.02205099910497665 0  -0.01785700023174286 0.02206500060856342 0  -0.01736800000071526 0.02294499985873699 0  0.03803899884223938 0.08004800230264664 0  0.03790400177240372 0.07915099710226059 0  0.03904499858617783 0.07934799790382385 0  0.03884699940681458 0.09129200130701065 0  0.03951700031757355 0.09161199629306793 0  0.03852400183677673 0.09211599826812744 0  0.02254300005733967 0.1002269983291626 0  0.02274700067937374 0.09937199950218201 0  0.02352100051939487 0.09973099827766418 0  0.02164500020444393 0.1006830036640167 0  0.0218529999256134 0.09964700043201447 0  -0.007872000336647034 0.09555500000715256 0  -0.006959999911487103 0.09571400284767151 0  -0.007588000036776066 0.09640300273895264 0  -0.006661999970674515 0.09657000005245209 0  -0.0187120009213686 0.09603799879550934 0  -0.01904300041496754 0.09537799656391144 0  -0.0180050004273653 0.09553100168704987 0  -0.01965700089931488 0.0961650013923645 0  -0.01575499959290028 0.1015660017728806 0  -0.01606200076639652 0.1023570001125336 0  -0.01651100069284439 0.1016649976372719 0  -0.01141699962317944 0.0944330021739006 0  -0.01059299986809492 0.09449400007724762 0  -0.01120899990200996 0.09519699960947037 0  -0.01225200016051531 0.09438099712133408 0  -0.01163600012660027 0.09367900341749191 0  -0.012470000423491 0.09362799674272537 0  -0.01492800004780293 0.09639199823141098 0  -0.0155029995366931 0.0970660001039505 0  -0.01580700092017651 0.09632600098848343 0  -0.01370699983090162 0.09502500295639038 0  -0.01457600016146898 0.09497199952602386 0  -0.01395300030708313 0.09427700191736221 0  0.01008000038564205 0.0925849974155426 0  0.01100100018084049 0.09251999855041504 0  0.01042199973016977 0.09332200139760971 0  0.007284000050276518 0.07829800248146057 0  0.007830999791622162 0.07742500305175781 0  0.008204000070691109 0.07823300361633301 0  -0.007470000069588423 0.01727999933063984 0  -0.006645999848842621 0.01750900037586689 0  -0.008348999544978142 0.01714899949729443 0  -0.009266999550163746 0.01701200008392334 0  -0.01298000011593103 0.01689000055193901 0  -0.01324599981307983 0.01796700060367584 0  -0.0138579998165369 0.01706999912858009 0  -0.01240899972617626 0.01779500022530556 0  -0.01244399975985289 0.01881800033152103 0  -0.0115750003606081 0.01798300072550774 0  -0.01199399959295988 0.02174199931323528 0  -0.01247799955308437 0.02078500017523766 0  -0.01152299996465445 0.02083900012075901 0  -0.01104199979454279 0.01999199949204922 0  -0.01048799976706505 0.02084000036120415 0  -0.01200699992477894 0.0198379997164011 0  -0.01295899972319603 0.02174600027501583 0  -0.01440799981355667 0.0209560003131628 0  -0.01491000037640333 0.0219149999320507 0  -0.01392900012433529 0.02181800082325935 0  -0.008973999880254269 0.01986799947917461 0  -0.01093299966305494 0.0307219997048378 0  -0.01144099980592728 0.02985000051558018 0  -0.01043100003153086 0.02980899997055531 0  -0.005357999820262194 0.02956699952483177 0  -0.00586399994790554 0.03048899956047535 0  -0.006370000075548887 0.02962099947035313 0  -0.007996000349521637 0.01994699984788895 0  -0.005477000027894974 0.01943100057542324 0  -0.006465000100433826 0.01925699971616268 0  -0.005677999928593636 0.01858600042760372 0  -0.005756000056862831 0.01775600016117096 0  -0.004769999999552965 0.01803000085055828 0  0.04092400148510933 0.087506003677845 0  0.04176300019025803 0.08697299659252167 0  0.04138600081205368 0.08813700079917908 0  0.04041900113224983 0.08831600099802017 0  0.01609599962830544 0.05883200094103813 0  0.01710399985313416 0.0587179996073246 0  0.01663899980485439 0.05961300060153008 0  0.02941999956965446 0.04371900111436844 0  0.0298870000988245 0.04267099872231483 0  0.03033499978482723 0.04337900131940842 0  0.03140199929475784 0.047775998711586 0  0.03228599950671196 0.04708399996161461 0  0.03259700164198875 0.04779599979519844 0  0.03107799962162971 0.05113700032234192 0  0.03017700091004372 0.05125899985432625 0  0.03070599958300591 0.05032800137996674 0  0.03030700050294399 0.04954800009727478 0  0.03127500042319298 0.0493989996612072 0  0.02976400032639503 0.05046600103378296 0  0.02924400009214878 0.05138599872589111 0  0.02932200022041798 0.04971199855208397 0  0.02881699986755848 0.04897800087928772 0  0.02833000011742115 0.04986000061035156 0  0.0278099998831749 0.04911199957132339 0  0.03840000182390213 0.08984199911355972 0  0.03744500130414963 0.08991099894046783 0  0.03803399950265884 0.08912099897861481 0  0.03710100054740906 0.0891600027680397 0  0.008132999762892723 0.02468499913811684 0  0.008867000229656696 0.02514199912548065 0  0.008135000243782997 0.02575100027024746 0  0.008937000297009945 0.02610200084745884 0  0.02733200043439865 0.04999399930238724 0  0.02339399978518486 0.05213199928402901 0  0.02292400039732456 0.05302400141954422 0  0.02239000052213669 0.05224400013685226 0  0.02391899935901165 0.05291000008583069 0  0.0296810008585453 0.05217299982905388 0  0.01879199966788292 0.0354980006814003 0  0.01791799999773502 0.0353740006685257 0  0.01833200082182884 0.03448100015521049 0  0.0133689995855093 0.04078900068998337 0  0.01244500000029802 0.04080599918961525 0  0.01290499977767467 0.03991400077939034 0  0.01197999995201826 0.0399320013821125 0  0.01152100041508675 0.04082199931144714 0  0.01151600014418364 0.03905599936842918 0  0.01243999972939491 0.03904100134968758 0  0.01291000004857779 0.04168099910020828 0  -0.02845799922943115 0.07095299661159515 0  -0.02734199911355972 0.07134799659252167 0  -0.02836599946022034 0.07175199687480927 0  -0.02662700042128563 0.07066000252962112 0  -0.02625500038266182 0.07150500267744064 0  -0.02520100027322769 0.07166200131177902 0  -0.025713000446558 0.07239799946546555 0  -0.02458800002932549 0.07094199955463409 0  -0.02416699938476086 0.07180400192737579 0  -0.0247189998626709 0.07253699749708176 0  -0.02860900014638901 0.06917600333690643 0  -0.01936599984765053 0.08391000330448151 0  -0.02037099935114384 0.08380399644374847 0  -0.01890699937939644 0.09240599721670151 0  -0.01982799917459488 0.09236700087785721 0  -0.01923600025475025 0.09164900332689285 0  -0.02015299908816814 0.0916140004992485 0  -0.01956900022923946 0.09088499844074249 0  -0.01811300031840801 0.09479899704456329 0  -0.01724600046873093 0.09485000371932983 0  -0.01705699972808361 0.09558200091123581 0  -0.01424899976700544 0.08673100173473358 0  -0.01176800020039082 0.08078300207853317 0  -0.0107599999755621 0.08089499920606613 0  -0.01128299999982119 0.08162800222635269 0  -0.01083699986338615 0.08245900273323059 0  -0.01029899995774031 0.08173199743032455 0  -0.01584899984300137 0.07866699993610382 0  -0.01636799983680248 0.07777699828147888 0  -0.01535400003194809 0.07790199667215347 0  -0.0143400002270937 0.07802700251340866 0  -0.01484700012952089 0.07713700085878372 0  -0.01883699931204319 0.08159200102090836 0  -0.01834199950098991 0.0808349996805191 0  -0.01936000026762486 0.08071299642324448 0  -0.02037999965250492 0.08059299737215042 0  -0.02529799938201904 0.07327699661254883 0  -0.02586000040173531 0.07568199932575226 0  -0.02542600035667419 0.076555997133255 0  -0.02297100052237511 0.02443999983370304 0  -0.0232900008559227 0.02507000043988228 0  -0.02350400015711784 0.02568800002336502 0  -0.02373499982059002 0.02635199949145317 0  -0.02281000092625618 0.02630499936640263 0  -0.01977300085127354 0.02391400001943111 0  -0.01881000027060509 0.02393399924039841 0  -0.02073900029063225 0.02386399917304516 0  -0.02232199907302856 0.02315600030124187 0  -0.01736900024116039 0.01823299936950207 0  -0.01699100062251091 0.01899800077080727 0  -0.01816000044345856 0.01860000006854534 0  -0.0165570005774498 0.01785599999129772 0  -0.01829499937593937 0.02306400053203106 0  -0.01640200056135654 
[...]
<PointData  Scalars="pressure"> 
<DataArray  type="Float64"  Name="pressure"  format="ascii">1.4168949051128005e-02  1.4135421708024926e-02  1.4178551096929795e-02  1.4152263676116883e-02  1.4189725421448175e-02  1.4148658036085046e-02  1.4111016160472785e-02  1.4141144499213942e-02  1.4081249409108688e-02  1.4169452468768058e-02  1.4949703283061524e-02  1.4895855328723461e-02  1.4870642345861069e-02  1.4814354665462319e-02  1.6791315104166593e-02  1.6839849382286984e-02  1.6901142513518760e-02  1.5593649960495497e-02  1.5815962725722270e-02  1.5527905935313922e-02  1.5746495768648731e-02  1.8387135477323260e-02  1.8579429677046070e-02  1.8212675758142428e-02  1.8113458135193779e-02  1.8130385429910505e-02  1.8263951684204929e-02  1.7980332109404827e-02  1.4070679576451008e-02  1.4060093150305687e-02  1.4070000549668248e-02  1.4099823602173031e-02  1.4104672444797024e-02  1.4131733933183607e-02  1.4118925937510823e-02  1.4172636957109165e-02  1.4184415416018906e-02  1.4068783353335598e-02  1.4115288057057036e-02  1.4099718797625373e-02  1.4108990739533804e-02  1.4078520324042818e-02  1.4097881130924000e-02  1.4334311350488738e-02  1.4310977306751137e-02  1.4374324330396229e-02  1.4274602570569908e-02  1.4218582948767801e-02  1.4244352899648927e-02  2.4327148764067774e-02  2.2556720900905172e-02  2.4052324703360092e-02  4.6322925477817724e-02  4.7497164679742562e-02  4.7836938663791823e-02  4.0518829371235271e-02  3.9944867737854071e-02  4.1116516297112785e-02  3.9993010207482027e-02  3.9280318038083101e-02  2.2143830585142014e-02  2.2351654907172260e-02  2.2741979864564121e-02  2.2997021151891894e-02  2.1339070190651684e-02  2.1120600542796686e-02  2.1317097068088164e-02  2.1198149445605788e-02  2.3880366491187265e-02  2.3972359521904203e-02  2.3544241409060571e-02  2.1261743528508278e-02  2.1317181696737325e-02  2.1680244166793969e-02  2.1213725902216655e-02  2.0859212088831906e-02  2.0840137342527900e-02  2.1937422319075209e-02  2.2152667995642798e-02  2.1829322725595336e-02  2.1458664075503588e-02  2.1386836425238854e-02  2.1120194864293444e-02  1.8935320466968216e-02  1.9081409746155499e-02  2.0261430335168498e-02  2.7136680028780960e-03  2.5943379070454131e-03  3.3424307250814328e-03  1.4903187328951819e-02  1.4973177194122514e-02  1.4844467519093445e-02  1.4772507693352834e-02  1.4537523821520196e-02  1.4561064214365895e-02  1.4490559537042355e-02  1.4612954745782645e-02  1.4602125039471437e-02  1.4672951442079703e-02  1.4588801260968429e-02  1.4567047929785897e-02  1.4632155343425119e-02  1.4680684782164756e-02  1.4708036661961063e-02  1.4614547770092502e-02  1.4523390526366201e-02  1.4437998777759097e-02  1.4397237426204565e-02  1.4459510113782971e-02  1.4841334235365610e-02  1.5279179717884325e-02  1.5127069397327803e-02  1.5155784114631587e-02  1.5341394029793256e-02  1.5394994338925980e-02  1.5289800707492505e-02  1.4918696773100412e-02  1.5111828430444865e-02  1.5047119005820963e-02  1.5089900857097837e-02  1.5032697662600313e-02  1.5084979391919648e-02  4.0412069235302328e-02  4.0342449988555705e-02  4.1996982414505543e-02  4.1481412442523999e-02  1.4037115691036564e-02  1.4514193654537818e-02  1.4058149560274888e-02  2.0905529677649939e-02  2.0843443934143582e-02  2.1008799034710923e-02  2.1722765481834268e-02  2.1790358023511730e-02  2.1909484667728601e-02  2.1938035100918928e-02  2.1785583354146095e-02  2.1827451631340190e-02  2.1710662520351174e-02  2.1829679867018913e-02  2.1669051940965037e-02  2.1588145041318171e-02  2.1545033582069117e-02  2.1409711509142886e-02  2.1332303864591937e-02  2.1190933408082188e-02  4.2890744547298097e-02  4.2178769946040501e-02  4.1049042423500118e-02  4.0258383842656099e-02  1.6095754789048341e-02  1.6144001789396005e-02  1.6106206120267249e-02  1.6161539196522412e-02  2.1069722379455605e-02  1.9316957913028811e-02  1.8942852260458099e-02  1.8814184956770057e-02  1.9463368419144297e-02  2.1704461025092076e-02  1.7914356732665251e-02  1.7754151007907247e-02  1.7697360490034869e-02  1.7152839655954072e-02  1.6905245631816924e-02  1.7082281410199830e-02  1.6852523265264641e-02  1.6668551615236640e-02  1.6786289448080506e-02  1.7001133986862049e-02  1.6944815259851986e-02  1.5990196502596865e-02  1.5816581094383362e-02  1.5886136511088167e-02  1.5807966046344775e-02  1.5957877208724665e-02  1.6020405475447839e-02  1.6137011016953019e-02  1.5917541056414651e-02  1.6087279588670008e-02  1.6200476977127058e-02  1.5425073988283303e-02  1.8406531484550969e-02  1.8383234615640048e-02  2.0273317038422389e-02  2.0209386263475061e-02  2.0044399453929152e-02  1.9981837566311961e-02  1.9828896253669764e-02  2.1070714800509278e-02  2.1154606120244095e-02  2.1428743401387798e-02  1.8415704890941853e-02  1.5430909070058237e-02  1.4753490368461814e-02  1.5430912315118891e-02  1.5497404662533739e-02  1.4795391297512631e-02  1.6824931508964698e-02  1.6768018762359831e-02  1.6460364981717650e-02  1.6046801377444596e-02  1.6064829029363067e-02  1.7975214180149936e-02  1.7792172330479236e-02  1.7831306213974475e-02  1.7825169860542049e-02  1.6317304754670959e-02  1.6726576634112561e-02  1.6892150849822679e-02  1.4123858491281033e-02  1.4157328042269476e-02  1.4199987438091165e-02  1.4261133511014282e-02  1.4145411335423907e-02  1.4122364688762733e-02  1.4175179335168028e-02  1.4063091185693953e-02  1.4102734581671494e-02  1.4273703319679264e-02  1.4310490060089762e-02  1.4245813838589881e-02  1.4321467951416929e-02  1.4190986805577468e-02  1.4305251810441667e-02  1.4344259733797146e-02  1.4285810727795892e-02  1.5254884488571097e-02  1.5428402839042996e-02  1.5406449497651117e-02  1.4659444023565296e-02  1.4733522699966303e-02  1.4785586060739694e-02  1.4713988683163648e-02  1.4811260012802450e-02  1.4768751121766475e-02  1.4847925210944187e-02  1.4920568026175449e-02  1.4853323300205112e-02  4.4914159905504618e-02  4.6249896835251936e-02  4.6695516559934869e-02  3.6000723440197793e-02  3.8059634906380702e-02  3.7260323241296120e-02  2.6928932360413181e-02  2.6450298974013027e-02  2.5447702043258025e-02  2.2587850665700047e-02  4.8192269094234144e-02  4.8209777631128090e-02  4.6644603887749457e-02  4.6392714616985430e-02  4.8113555977860684e-02  4.7996520841709543e-02  3.9409323955029059e-02  3.8352978266975903e-02  3.7504334829848142e-02  3.6445893728351761e-02  4.4753228288871266e-02  4.6047968979856496e-02  4.4868954947821262e-02  4.4618525947616713e-02  4.3378405561722129e-02  4.2517996778726745e-02  4.4034630668638934e-02  3.9209333971270223e-02  3.8917623717829544e-02  3.8136054690621091e-02  3.8173446726726144e-02  3.9141898331663830e-02  3.8466034034373993e-02  3.9608138552366001e-02  2.1865236676186471e-02  2.2217189513511426e-02  2.1765585594024105e-02  2.1376111397003066e-02  2.1695034653780445e-02  2.4743872666968626e-02  2.3761979100406502e-02  2.4300219020723050e-02  2.3340409255355611e-02  2.1416136314681099e-02  2.3019057207153644e-02  2.2645043226285730e-02  2.2985078130116469e-02  2.3228709232225229e-02  2.3141178313110588e-02  2.3533248254192330e-02  2.3365451015664000e-02  2.3190209372120355e-02  2.3350883417658379e-02  1.8316871366963829e-02  1.7848368399352745e-02  1.7664344440681535e-02  1.9279120311384360e-02  1.9720044243899251e-02  1.9392584865866612e-02  2.1069838926018020e-02  2.0883889470306120e-02  2.2101491303440402e-02  2.2526194080241070e-02  2.2853677450671930e-02  2.2496955174182078e-02  2.2644146165557773e-02  2.2415499625243834e-02  2.2781630108260596e-02  2.1599173272629044e-02  2.1528945948354267e-02  2.1895116838668620e-02  2.1169912337797154e-02  2.2162933642969302e-02  2.2274034620166316e-02  2.2052208543070842e-02  2.2862337774795693e-02  2.2022399091391084e-02  2.1618590867922099e-02  2.1804730320077376e-02  2.9063669611059585e-02  2.8428612199081906e-02  2.8797259038630160e-02  2.8113662025269943e-02  2.6530152279373338e-02  2.6400027445084538e-02  2.7210779010326296e-02  2.7287334452822984e-02  3.4217764801860125e-02  3.4009842358415150e-02  3.4757639191461381e-02  3.3674708604120078e-02  3.3635865985030766e-02  3.2647253213557423e-02  3.3170662955818359e-02  3.2712549972169727e-02  3.3117894758685699e-02  3.2578029993350861e-02  3.8411542006525884e-02  3.7722095059721510e-02  3.8453040066776079e-02  3.7731898867421204e-02  3.8418129902372408e-02  3.6918874691174171e-02  3.6461799904368500e-02  3.6029193527550935e-02  3.1727642471125653e-02  3.1013782057523788e-02  3.1456005668161507e-02  2.8452874700310115e-02  2.8785797249472181e-02  2.9173248606131626e-02  1.7738742371403132e-02  1.9073592423774897e-02  1.8431751273842167e-02  1.7132537023292958e-02  1.7889681797836093e-02  1.9251681331589623e-02  2.7436912397389088e-03  2.3464351757265245e-03  3.1549402008791694e-03  2.0165088469573864e-03  3.5595656583685686e-03  7.7530281965387041e-03  8.0910552010779388e-03  7.1341375050804762e-03  1.5029797920470534e-02  1.4984676168818177e-02  1.5507412480266370e-02  1.8964242217814124e-02  1.8393581021961349e-02  1.8877804365378018e-02  1.8307751664919759e-02  1.8051784127623569e-02  1.7635011953309406e-02  1.7541093485308690e-02  1.5437734977209634e-02  1.5598073419523410e-02  1.5601828039031474e-02  1.0189097092501105e-02  1.0159270684755896e-02  1.0368171171841731e-02  1.0068346755343856e-02  1.0435067348713668e-02  1.0160126311286773e-02  9.7982907832946456e-03  1.0264948482081114e-02  1.8419500804770998e-02  1.7483166700408073e-02  1.7881932281195469e-02  1.6726693015434727e-02  1.8255458184122782e-02  1.7890845750164055e-02  1.8390316871655134e-02  1.8563328055340510e-02  1.8077017687378266e-02  1.8328170781081402e-02  1.8819617433350130e-02  1.9310026607581611e-02  1.9017083836898846e-02  1.8500780762078076e-02  1.8789967653048169e-02  1.9203420813328806e-02  1.8137970594932558e-02  2.2655174340210572e-02  2.1366864574941653e-02  2.2707760299931417e-02  2.6123634368314223e-02  2.5016119409258557e-02  2.5057510974618530e-02  1.5438185677395307e-02  1.5025565015594874e-02  1.4359759070298309e-02  1.3979405602035103e-02  1.7399632066910194e-02  1.6609699179741155e-02  1.4715577567251798e-02  1.5821284070803004e-02  1.7789636588743916e-02  2.0451072800576918e-02  2.3369086455510977e-02  2.4519551203040169e-02  2.3060967883412813e-02  2.1891219407352381e-02  2.1486230127543152e-02  4.1142097569766001e-03  4.0501485655332278e-03  3.5091688788373571e-03  4.3423777177504924e-03  3.8624811777746293e-03  3.2971218781735825e-03  7.0986687614013749e-03  6.3129522505019769e-03  6.3811099772439414e-03  1.4420120725792535e-02  1.4373998311442392e-02  1.4434284059834213e-02  1.4435110063510635e-02  1.4551284942779536e-02  1.4591395595566308e-02  1.4647206606899759e-02  1.4736343718902756e-02  1.4737673682182463e-02  1.4724477263262880e-02  1.4702992020554650e-02  1.4797057319544955e-02  1.5096300848171144e-02  1.4982056043882783e-02  1.4942360010090014e-02  1.5056450056621366e-02  1.5056907094307913e-02  1.4982931314089204e-02  1.5093925376272323e-02  1.5031356367588896e-02  1.5138810655716376e-02  1.5089879195991480e-02  1.5436755998398260e-02  1.5286912996750987e-02  1.5261799284188225e-02  1.5206375357547579e-02  1.5240934348698082e-02  1.5322943508289111e-02  1.4973380369960428e-02  1.4996654967169440e-02  1.5405420083040682e-02  1.5532078697086327e-02  1.5120387704966428e-02  1.5162312327424432e-02  1.4999957982835842e-02  1.6143289726573667e-02  1.6522217144830743e-02  1.6391487783126126e-02  1.6060164825557964e-02  1.5781973313162043e-02  1.6012129487908044e-02  2.1339520644908627e-02  2.1128085948570057e-02  2.1092606168196963e-02  2.1292832481410316e-02  2.1612701180191325e-02  2.1595118714163395e-02  2.1851009997918409e-02  3.8767623573100471e-02  3.3785802103245451e-02  3.4479735838335038e-02  3.5661433646069468e-02  3.6688841191936709e-02  2.2301602405906826e-02  2.2487575600616455e-02  2.2447508012245290e-02  2.2302184127231030e-02  2.2401512443156857e-02  2.2172783656946398e-02  2.2144382918121718e-02  2.1434533359450607e-02  2.1674001430498267e-02  2.1634643797270068e-02  2.1846666839585770e-02  2.1693803699806512e-02  2.1839653863510458e-02  2.1676246901390375e-02  2.1814843045051845e-02  2.1891943170238782e-02  2.2058471780857760e-02  2.2027433763329010e-02  2.1898211760869375e-02  2.1915178049339176e-02  2.1189004417807095e-02  2.1486790221860112e-02  2.1203234097633226e-02  2.0869394769946772e-02  2.1202277598783407e-02  2.0866899570807628e-02  2.2129742410981576e-02  2.2212755893351966e-02  2.2149570855892052e-02  2.1965981736378169e-02  2.2160067348212697e-02  1.2615570932494109e-02  1.2079027727350582e-02  1.2062239801114011e-02  1.6231948363109244e-02  1.6190828983111017e-02  1.6761392175843333e-02  1.5569148885349847e-02  8.2705125671022478e-03  7.4603339020349810e-03  7.9977366471121192e-03  7.7833041990509125e-03  8.6073052257886612e-03  9.0193965652666103e-03  1.2142122453698563e-02  1.2437645515859838e-02  1.2334415718403866e-02  1.1864076999322348e-02  1.1973340985308355e-02  1.1529274343640844e-02  1.1711134629119775e-02  1.1452976764505317e-02  1.2048737293122738e-02  1.1777149494280652e-02  1.1122296478456979e-02  1.0485706592175632e-02  1.0627585180479043e-02  1.1037709753963919e-02  1.1627947305722176e-02  1.1692291441650633e-02  8.6759884534144197e-03  9.4564068654729716e-03  9.2094885274682722e-03  1.5734828489123266e-02  1.6148709068765258e-02  1.5631024646394414e-02  1.1500375151009122e-02  1.2130134203325101e-02  2.1121663073184839e-02  2.2052747020783175e-02  2.2082658719684126e-02  2.2187755633788803e-02  2.2043800702047200e-02  2.2033798664569695e-02  2.2142639574712221e-02  2.1972040101378980e-02  2.1668153923968401e-02  2.1712114176652472e-02  2.1946071625305302e-02  2.1255024026557851e-02  2.1433606966840432e-02  2.1282175861743774e-02  2.1447271560895195e-02  2.0927994734541332e-02  2.0758138083808469e-02  1.9244805440684326e-02  1.8929535535684678e-02  1.8797311623559503e-02  2.1052449406652029e-02  2.1197780798385860e-02  2.1464448053753811e-02  2.1585420475251547e-02  3.9157067299150916e-02  1.6201944619650809e-02  1.6194896347188865e-02  1.6249533569437775e-02  1.6403195983281542e-02  1.6313801060903237e-02  1.6328498576657264e-02  1.6262099924495951e-02  1.5839346014204704e-02  1.5833991987344507e-02  1.5770148564374260e-02  1.5774854602064053e-02  1.5843286724879526e-02  1.5903028517425314e-02  1.5624456683889596e-02  1.5617318365559015e-02  1.5546720572997101e-02  1.5695218121827708e-02  1.5538304533459675e-02  1.5611700350894271e-02  1.5467678286509325e-02  1.5479915464354670e-02  1.9074231136529788e-02  1.9201842517974025e-02  1.8638901195615849e-02  2.0411518811707909e-02  1.9955845148589588e-02  2.0270160494869259e-02  2.0132921086851611e-02  2.0534447586018995e-02  1.9820456961106649e-02  2.1581151014470733e-02  2.1396890727285962e-02  2.1291464264019924e-02  1.7516445085790470e-02  1.6981483493262468e-02  1.7486764586894424e-02  2.0045853037862233e-02  2.0046688870866840e-02  2.0479476620867083e-02  1.7587639312732044e-02  1.7522790159065389e-02  1.7703625412969579e-02  1.7805149448422455e-02  1.7715784666323939e-02  1.7951568958622609e-02  1.7657042395093317e-02  1.7610081436329677e-02  1.7805286988262704e-02  1.9736354321010525e-02  1.9908403668079337e-02  1.9718368586254535e-02  1.9541868614657697e-02  1.9564939178487555e-02  1.9411541668896432e-02  1.9250715663900748e-02  1.9207110106943041e-02  1.9009591516120562e-02  1.8796616384656288e-02  1.8783947208249666e-02  1.8634995900567986e-02  1.8589840895861017e-02  1.8804592573204729e-02  1.8841727786857523e-02  1.8619206555665287e-02  1.6346676299388428e-02  1.6401408072348116e-02  1.6262581350160933e-02  1.6300515378528814e-02  1.7274445655183532e-02  1.7616020265124852e-02  1.7278589378514970e-02  1.6931393293798867e-02  1.7266870023889401e-02  1.7477617491459613e-02  1.7315937930588141e-02  1.7399103797488744e-02  1.7564808416948300e-02  1.7591950200548878e-02  1.6644027314889741e-02  1.6959431339529079e-02  1.6946629558837183e-02  1.7254517342754971e-02  1.7239684739811693e-02  1.7206290743508892e-02  1.7470023229521757e-02  1.6960071188179476e-02  1.6686340659362701e-02  1.6178569902604207e-02  1.5984851187687894e-02  1.6154469036585597e-02  6.7513506041684893e-03  7.4479140814519076e-03  6.5334653564092932e-03  1.6383453639639264e-02  1.6486840028911119e-02  1.6034545196464189e-02  1.5696239446660085e-02  1.9150344719459523e-02  1.8974090594430500e-02  1.9133791107304378e-02  1.9315026348890863e-02  1.9133337069488231e-02  1.6872268656949317e-02  1.7153809928525769e-02  1.8890800721576007e-02  1.8898094892475504e-02  1.8961229836523208e-02  1.8261986722077173e-02  1.8964677872447450e-02  1.8985228571707639e-02  1.9095809804609062e-02  1.8537159868850975e-02  1.8530776614821737e-02  2.1002966159193323e-02  2.0910855235421657e-02  2.0614046258690032e-02  2.0698076266575466e-02  2.0544877656487267e-02  2.0440936396634905e-02  2.0300653456103868e-02  2.0078750925712645e-02  2.0170624945673132e-02  1.9949019960463010e-02  1.9888991331062041e-02  1.9678523676093879e-02  1.8761701497139561e-02  2.0952993451330761e-02  1.6365083815989424e-02  1.6729560363008163e-02  1.6022212932808304e-02  1.5633345236606509e-02  1.6130260347562007e-02  1.5607294686393131e-02  1.6255545883390295e-02  1.2825586758782419e-02  1.3520092793689147e-02  1.2541469243610430e-02  1.4416237424201780e-02  1.3761641949761226e-02  1.5745726385198888e-02  1.7060291832653805e-02  1.7361128077539895e-02  1.7640052638219692e-02  1.7966435213231720e-02  1.4216711294037204e-02  1.4015258043372683e-02  1.7344399500033102e-02  1.7443017136708251e-02  1.6431378662042632e-02  1.6700009709857092e-02  1.6389957534124477e-02  7.2762571788572566e-03  8.0965914488729182e-03  1.6623408194224240e-02  1.6881648152667305e-02  1.6320301307356098e-02  1.7026023058312363e-02  1.6874625107080016e-02  1.7035966193848461e-02  1.6445011954661193e-02  1.6499323407769224e-02  1.6633818209465273e-02  1.7910554996065146e-02  1.7678441291045226e-02  1.7661844247572469e-02  1.7515335298017208e-02  1.6744359125925388e-02  1.6645338070123153e-02  1.6944799539728536e-02  1.7147664373387026e-02  1.6984025459620328e-02  1.4194792409358364e-02  1.4325056899548938e-02  1.4307663324060312e-02  1.4200990251043807e-02  1.4418273417874654e-02  1.4212567392600593e-02  1.4222292789909365e-02  1.4293450473560326e-02  1.4343731103290673e-02  1.4255102414995356e-02  1.4241180945577199e-02  1.4364861175584866e-02  1.4951208489931596e-02  1.5033925485619524e-02  1.5118392252013949e-02  1.4859576115661306e-02  1.4690789086272991e-02  1.4535124243737971e-02  1.4604490642968978e-02  1.4651983238016180e-02  1.4722123001173967e-02  1.4815502373492100e-02  1.4742586654036983e-02  1.4918213961557583e-02  1.4837954734420115e-02  1.4584082796124602e-02  1.4995674366059884e-02  1.5022730154614677e-02  1.5123827629817930e-02  1.4934732897189790e-02  1.5188393753110690e-02  1.5036127294157264e-02  1.4876545857577504e-02  1.4214455394813648e-02  1.4272974185760130e-02  1.4342987067296635e-02  1.5763147116347218e-02  1.5733973674343763e-02  1.5624513175565950e-02  1.5642582321344987e-02  1.5373300418726987e-02  1.5562559257236510e-02  1.5133695294549752e-02  1.5324493080039508e-02  1.5262905812791046e-02  1.4954600605828528e-02  1.5008392807554800e-02  1.5218061073433407e-02  1.5321229530605825e-02  1.5523319552448667e-02  1.5724127902403778e-02  1.5610316738601419e-02  1.5463725924006463e-02  1.5393241910897967e-02  1.5309328501362341e-02  1.5515764371299926e-02  1.4449873631518669e-02  1.4417185875647071e-02  1.4507073702790817e-02  1.4618128384918227e-02  1.4565002568097431e-02  1.4711482773677738e-02  1.4729273632660238e-02  1.4649828522860411e-02  1.4847599303734031e-02  1.4799765133106345e-02  1.4891792284454031e-02  1.4671064852679685e-02  1.4645244385427390e-02  1.4938758043863420e-02  1.4878568164781968e-02  1.4824354151965789e-02  1.4938536663472883e-02  1.4734843853191376e-02  1.4787778690467289e-02  1.4692727041790202e-02  1.4862869491859190e-02  1.4893113924356754e-02  1.4944991966016397e-02  4.4830099234143397e-02  4.579961505