<?xml version="1.0"?>
<VTKFile type="UnstructuredGrid"  version="0.1"  >
<UnstructuredGrid>
<Piece  NumberOfPoints="6340" NumberOfCells="12376">
<Points>
<DataArray  type="Float64"  NumberOfComponents="3"  format="ascii">-0.01948099955916405 0.02068700082600117 0  -0.02026299946010113 0.02137999981641769 0  -0.02047000080347061 0.02037999965250492 0  -0.02111000008881092 0.02119500003755093 0  -0.01969500072300434 0.01976400054991245 0  -0.01934400014579296 0.02156800031661987 0  -0.01992500014603138 0.02234099991619587 0  -0.01944700069725513 0.02314699999988079 0  -0.0204709991812706 0.02315099909901619 0  -0.01886799931526184 0.02228900045156479 0  -0.007753000129014254 0.01815200038254261 0  -0.008444000035524368 0.01898599974811077 0  -0.008768999949097633 0.01804599910974503 0  -0.009468000382184982 0.0189180001616478 0  -0.02622199989855289 0.07772400230169296 0  -0.02716200053691864 0.07823699712753296 0  -0.02734800055623055 0.07744999974966049 0  -0.02677799947559834 0.0710970014333725 0  -0.02742199972271919 0.071881003677845 0  -0.02761499956250191 0.07098899781703949 0  -0.02837000042200089 0.07148999720811844 0  -0.01239299960434437 0.08837000280618668 0  -0.01328899990767241 0.08833300322294235 0  -0.01274100039154291 0.08759699761867523 0  -0.01995399966835976 0.08328200131654739 0  -0.0189410001039505 0.08335399627685547 0  -0.0194109994918108 0.08412099629640579 0  -0.01948799937963486 0.08251000195741653 0  -0.02238300070166588 0.02483600005507469 0  -0.02143700048327446 0.02484400011599064 0  -0.02187900058925152 0.02570600062608719 0  -0.02227500081062317 0.02657200023531914 0  -0.02284199930727482 0.02571200020611286 0  -0.02092500030994415 0.02571799978613853 0  -0.02046000026166439 0.02484400011599064 0  -0.01946499943733215 0.0248390007764101 0  -0.01994699984788895 0.02570999972522259 0  -0.021934999153018 0.02395199984312057 0  -0.02297100052237511 0.02400700002908707 0  -0.02229000069200993 0.0227000005543232 0  -0.02171700075268745 0.02196899987757206 0  -0.02145699970424175 0.02306200005114079 0  -0.02085799910128117 0.02222800068557262 0  -0.01596000045537949 0.02194700017571449 0  -0.01647699996829033 0.02106400020420551 0  -0.01541899982839823 0.02106600068509579 0  -0.0169450007379055 0.02204300090670586 0  -0.01795100048184395 0.02207400090992451 0  -0.01745500043034554 0.0229519996792078 0  0.03864600136876106 0.08090899884700775 0  0.03849000111222267 0.0800279974937439 0  0.03965400159358978 0.08025199919939041 0  0.03969600051641464 0.09195999801158905 0  0.0403829999268055 0.09229400008916855 0  0.03938800096511841 0.09279800206422806 0  0.02336099930107594 0.1009159982204437 0  0.02354799956083298 0.100043997168541 0  0.02434200048446655 0.1004199981689453 0  0.02246100082993507 0.1013720035552979 0  0.02264700084924698 0.1003160029649734 0  -0.007286000065505505 0.09612800180912018 0  -0.006376000121235847 0.09625399857759476 0  -0.00698000006377697 0.09697099775075912 0  -0.006058000028133392 0.09710600227117538 0  -0.01790999993681908 0.0970349982380867 0  -0.01822699978947639 0.09639199823141098 0  -0.01722799986600876 0.09649699926376343 0  -0.0188209991902113 0.09720399975776672 0  -0.01499000005424023 0.1024729982018471 0  -0.01527400035411119 0.1032790020108223 0  -0.01573799923062325 0.1026019975543022 0  -0.01085800025612116 0.09513299912214279 0  -0.01004199963063002 0.0951630026102066 0  -0.01063599996268749 0.09589400142431259 0  -0.01167200040072203 0.0951090008020401 0  -0.01107800006866455 0.09437999874353409 0  -0.01189200021326542 0.0943560004234314 0  -0.0142620000988245 0.09723000228404999 0  -0.01481600012630224 0.09792999923229218 0  -0.01511500030755997 0.09719599783420563 0  -0.01308500021696091 0.0958079993724823 0  -0.01392600033432245 0.09578900039196014 0  -0.01332299970090389 0.09506700187921524 0  0.01053399965167046 0.0929810032248497 0  0.01146699953824282 0.09292399883270264 0  0.01089899986982346 0.09373799711465836 0  0.007362000178545713 0.07835999876260757 0  0.007899999618530273 0.07750900089740753 0  0.008294000290334225 0.07830300182104111 0  -0.007449999917298555 0.01727999933063984 0  -0.006622999906539917 0.01751199923455715 0  -0.008329000324010849 0.01714899949729443 0  -0.009247000329196453 0.01701200008392334 0  -0.01295999996364117 0.01688000001013279 0  -0.01323200017213821 0.01795700006186962 0  -0.01384800020605326 0.01706000044941902 0  -0.01238999981433153 0.01778599992394447 0  -0.01242499984800816 0.01880900003015995 0  -0.01155500020831823 0.01797699928283691 0  -0.01197999995201826 0.02173300087451935 0  -0.01246600039303303 0.02077499963343143 0  -0.01150400005280972 0.02082999981939793 0  -0.01102299988269806 0.01998599991202354 0  -0.01046899985522032 0.02083499915897846 0  -0.01198800001293421 0.01982899941504002 0  -0.01295499969273806 0.02173699997365475 0  -0.01441700011491776 0.02094700001180172 0  -0.0149320000782609 0.02190499939024448 0  -0.01393499970436096 0.02180800028145313 0  -0.008954999968409538 0.01986799947917461 0  -0.01093799993395805 0.03071399964392185 0  -0.01144899986684322 0.02984200045466423 0  -0.01042700000107288 0.02980099990963936 0  -0.005342000164091587 0.02956699952483177 0  -0.005849000066518784 0.03048899956047535 0  -0.00635500019416213 0.02962099947035313 0  -0.007977000437676907 0.01994699984788895 0  -0.005450999829918146 0.01943800039589405 0  -0.006442999932914972 0.01926000043749809 0  -0.005652000196278095 0.01859200000762939 0  -0.005729000084102154 0.01776299998164177 0  -0.004739999771118164 0.01803999952971935 0  0.04172199964523315 0.08816699683666229 0  0.04256799817085266 0.0876849964261055 0  0.04220100119709969 0.08878199756145477 0  0.04122199863195419 0.08893699944019318 0  0.01627600006759167 0.05903000012040138 0  0.01729799993336201 0.05893699824810028 0  0.01682600006461143 0.05982400104403496 0  0.02980400063097477 0.04416200146079063 0  0.03027799911797047 0.04311899840831757 0  0.03073599934577942 0.04384399950504303 0  0.03180700168013573 0.04830100014805794 0  0.03270300105214119 0.0476280003786087 0  0.03300999850034714 0.04835300147533417 0  0.03145600110292435 0.05167600139975548 0  0.03054800070822239 0.05177399888634682 0  0.03108800016343594 0.0508509986102581 0  0.03069099970161915 0.05005599930882454 0  0.03166799992322922 0.04993100091814995 0  0.03013800084590912 0.05096599832177162 0  0.02960800006985664 0.05187699943780899 0  0.02969799935817719 0.05019500106573105 0  0.02919100038707256 0.04944200068712234 0  0.02869600057601929 0.05031700059771538 0  0.02817099913954735 0.04954899847507477 0  0.03920799866318703 0.09047400206327438 0  0.03824099898338318 0.0905349999666214 0  0.03881999850273132 0.0897350013256073 0  0.03787500038743019 0.08976399898529053 0  0.008321000263094902 0.0247380007058382 0  0.009076000191271305 0.02519899979233742 0  0.008321999572217464 0.02580299973487854 0  0.009146000258624554 0.02615899965167046 0  0.02768499962985516 0.05042500048875809 0  0.02368799969553947 0.05247199907898903 0  0.02321100048720837 0.05335700139403343 0  0.02266599982976913 0.05255800113081932 0  0.02422299981117249 0.05326800048351288 0  0.03004099987447262 0.05268200114369392 0  0.01909900084137917 0.03571199998259544 0  0.01822200044989586 0.0355679988861084 0  0.01864299923181534 0.03468300029635429 0  0.01361399982124567 0.04090400040149689 0  0.0126759996637702 0.04090400040149689 0  0.01314499974250793 0.04002000018954277 0  0.0122060002759099 0.04002099856734276 0  0.01173700019717216 0.04090400040149689 0  0.01173599995672703 0.03913899883627892 0  0.0126759996637702 0.03913800045847893 0  0.01314499974250793 0.04178899899125099 0  -0.02825199998915195 0.07235600054264069 0  -0.02713900059461594 0.07270299643278122 0  -0.02814299985766411 0.07314900308847427 0  -0.02644399926066399 0.07198700308799744 0  -0.02605899982154369 0.0728129968047142 0  -0.02501199953258038 0.07292500138282776 0  -0.02550400048494339 0.07368099689483643 0  -0.02442000061273575 0.07218199968338013 0  -0.02398600056767464 0.0730229988694191 0  -0.0245169997215271 0.07377699762582779 0  -0.0284429993480444 0.07059299945831299 0  -0.01887300051748753 0.08494900166988373 0  -0.01987900026142597 0.08488500118255615 0  -0.0181060004979372 0.09342099726200104 0  -0.01900400035083294 0.0934239998459816 0  -0.01843699999153614 0.09268099814653397 0  -0.01933100074529648 0.09268800169229507 0  -0.01877499930560589 0.09193400293588638 0  -0.01733000017702579 0.09577199816703796 0  -0.0164950005710125 0.09578400105237961 0  -0.0163160003721714 0.09650599956512451 0  -0.01365900039672852 0.08754999935626984 0  -0.01148100011050701 0.0814799964427948 0  -0.01047199964523315 0.08155299723148346 0  -0.01095100026577711 0.08231300115585327 0  -0.01046099979430437 0.08312900364398956 0  -0.009965999983251095 0.08237600326538086 0  -0.01563199982047081 0.07952100038528442 0  -0.01617000065743923 0.07864899933338165 0  -0.01516100019216537 0.07873299717903137 0  -0.01415199972689152 0.07881499826908112 0  -0.01467499975115061 0.07794500142335892 0  -0.01847399957478046 0.08258599787950516 0  -0.01801799982786179 0.08180300146341324 0  -0.01903600059449673 0.08172299712896347 0  -0.02005499973893166 0.08164499700069427 0  -0.02507800050079823 0.07453999668359756 0  -0.02561100013554096 0.07695899903774261 0  -0.0251690000295639 0.07781200110912323 0  -0.02333099953830242 0.02470000088214874 0  -0.02367999963462353 0.02536999993026257 0  -0.02391500025987625 0.02603200078010559 0  -0.02416899986565113 0.02674400061368942 0  -0.02319999970495701 0.026613999158144 0  -0.01996699906885624 0.02399099990725517 0  -0.01896299980580807 0.02397399954497814 0  -0.02097400091588497 0.02397600002586842 0  -0.02261999994516373 0.02333400025963783 0  -0.01741299964487553 0.018223000690341 0  -0.01703199930489063 0.01898800022900105 0  -0.01821999996900558 0.01858999952673912 0  -0.01658499985933304 0.0178459994494915 0  -0.01841799914836884 0.0230880007147789 0  -0.0164560005068779 
[...]
<PointData  Scalars="pressure"> 
<DataArray  type="Float64"  Name="pressure"  format="ascii">7.1238745994869623e-03  7.0090474203841902e-03  7.1281669362760480e-03  7.0429020280902595e-03  7.2230474919822846e-03  7.0863040155777247e-03  6.9825794327969051e-03  6.9954277687851694e-03  6.8958483262318120e-03  7.1002755432202566e-03  8.9868948627228849e-03  8.8388808156844335e-03  8.8825533376177997e-03  8.7214452929153148e-03  1.3837864305441568e-02  1.3863950886086038e-02  1.3691477359752055e-02  1.2447966222304784e-02  1.2564158301341534e-02  1.2372779567625072e-02  1.2383039306373089e-02  1.7156251912921135e-02  1.7249779369551292e-02  1.6843355641538223e-02  1.5820245932113029e-02  1.5898533835070096e-02  1.6064444310463607e-02  1.5674051545620665e-02  6.7584850280658290e-03  6.7998311112331504e-03  6.7933866270030591e-03  6.8199150117766970e-03  6.7668250618139678e-03  6.8534809902190616e-03  6.8717413313269075e-03  6.9557938268300819e-03  6.9237986353269110e-03  6.7814858875827888e-03  6.8749965822816062e-03  6.9390764691080499e-03  6.9679005494055549e-03  6.8302223007619990e-03  6.9125770438803052e-03  7.5092326948705060e-03  7.4994671912636847e-03  7.6576775909481774e-03  7.3614397299402931e-03  7.2229479756631999e-03  7.2369987260762700e-03  1.7929309666110303e-02  1.6777690311124041e-02  1.7923092398617585e-02  3.0690950280637511e-02  3.0945402471926963e-02  3.1453748583121957e-02  4.1318958580315840e-02  3.9820163337990128e-02  4.0472657874763063e-02  4.2066568464992946e-02  4.0216975385894985e-02  2.3005356559374114e-02  2.3330690607912638e-02  2.3808434255321937e-02  2.4180093674111575e-02  2.1362661862476668e-02  2.0970111273876536e-02  2.1238878148572119e-02  2.1151839205118594e-02  2.5051791632832728e-02  2.5246907363137550e-02  2.4775411680118039e-02  2.1524428294628840e-02  2.1675359641250700e-02  2.2123962345614989e-02  2.1382402198915140e-02  2.0936500530418803e-02  2.0823457998881561e-02  2.2284826801661706e-02  2.2569180674212340e-02  2.2079587845074598e-02  2.1633512029349572e-02  2.1482139226187500e-02  2.1120609107221633e-02  2.3299133880112059e-02  2.3521145262795841e-02  2.4496619985114754e-02  3.0987397672171055e-03  2.4183492242423783e-03  3.3727935502301000e-03  9.0365976650909410e-03  9.1007274872393178e-03  8.9651928884506675e-03  8.8637194607589648e-03  8.3301038862794198e-03  8.2291635027608966e-03  8.1787015083934593e-03  8.3727550995829972e-03  8.3040750247054852e-03  8.5005710868302047e-03  8.1104324509119925e-03  8.1296548598743176e-03  8.2616788061065476e-03  8.4104577966842425e-03  8.4005693830414355e-03  8.2862899028752456e-03  7.9711047808374846e-03  7.8205123627139925e-03  7.6642042761694770e-03  7.8203970357849963e-03  8.6898677321064523e-03  8.1628156977527518e-03  8.0200580052182564e-03  8.1386710518955886e-03  8.7031422844737923e-03  8.6711476733472986e-03  8.5992172778873548e-03  8.7962521413822332e-03  9.0781215217620552e-03  9.0222618959320058e-03  9.1311147471638474e-03  9.1475812734466665e-03  9.1728543267214566e-03  2.7151685828455625e-02  2.7100272320138553e-02  2.7787109983269019e-02  2.7815809949184787e-02  8.9472738709604344e-03  9.1586607849520087e-03  8.9657776141291237e-03  1.3195498133292483e-02  1.3097679976495406e-02  1.3258435653058405e-02  1.3914327649327251e-02  1.3952511496119547e-02  1.4116237009587638e-02  1.4068072475928860e-02  1.3960605274085375e-02  1.4023867260864718e-02  1.3954442836887992e-02  1.4038035904985958e-02  1.3909706474741044e-02  1.3814701585475530e-02  1.3832188246222064e-02  1.3723998988680038e-02  1.3665565330867642e-02  1.3541915629631057e-02  2.9180762192882001e-02  2.9133464186260487e-02  2.8301811933821565e-02  2.8165083872453582e-02  9.3415689851381392e-03  9.3723134695246242e-03  9.2883674791775367e-03  9.3092704767663501e-03  1.3449626451418376e-02  1.2035455788967746e-02  1.1747210104868420e-02  1.1650948028994784e-02  1.2139731434041155e-02  1.3846832342204508e-02  1.0922683966099026e-02  1.0796953255497760e-02  1.0752583976333479e-02  1.0285236017556407e-02  1.0107481346912434e-02  1.0217238673427585e-02  1.0042839031553053e-02  9.9319088823031469e-03  9.9722104602811001e-03  1.0139086203250543e-02  1.0154873425621394e-02  1.2582294580675647e-02  1.2741085732253958e-02  1.2713851204493736e-02  1.2660199779507927e-02  1.2852575371905494e-02  1.2968168300113138e-02  1.3072016236010947e-02  1.2872449178132428e-02  1.3098870185772299e-02  1.3201619658513266e-02  1.2237865099002359e-02  1.6303941441236813e-02  1.6226114115816447e-02  1.9552374747599181e-02  1.9425249343941541e-02  1.9168978439498469e-02  1.9063316781406318e-02  1.8797105571209737e-02  2.0841048936325005e-02  2.1014228388172927e-02  2.1438010657908148e-02  1.6949671199097859e-02  1.3985131277112109e-02  1.3528993881881403e-02  1.4118142443021843e-02  1.4289195349566059e-02  1.3684135608289089e-02  1.4730163607017691e-02  1.4590236920381984e-02  1.4385227896453270e-02  1.4089523710204929e-02  1.3978721841061026e-02  1.5727988774672002e-02  1.5546736013783974e-02  1.5514242695388362e-02  1.5426938619198916e-02  1.3294352824526939e-02  1.3746821751139830e-02  1.3976705313155702e-02  6.8855382316265201e-03  6.9484602715330739e-03  6.9607075685692472e-03  7.0038770477948951e-03  6.8199509557975227e-03  6.9199981818211277e-03  7.0178229422811836e-03  6.8335491040769497e-03  6.8931988614853446e-03  7.5996387682069275e-03  7.5665337624467796e-03  7.4780421286200389e-03  7.7342325223682118e-03  7.1103348795573049e-03  7.3737767124997626e-03  7.3904855655259859e-03  7.2574312600233101e-03  8.0511851480872428e-03  8.2155638426213116e-03  8.1143939310609446e-03  8.2466462543116965e-03  8.2246554835191527e-03  8.2361778215956048e-03  8.0998727669995725e-03  8.3579686646318534e-03  8.3597683049751736e-03  8.2683232595035759e-03  8.3176063397519193e-03  8.1746427429466410e-03  2.9207989253573274e-02  2.9458812551539565e-02  2.9963856123080206e-02  2.5397273700213999e-02  2.6506751711013542e-02  2.6281406758228244e-02  2.0095583870753088e-02  1.9906829014358883e-02  1.8996176555634833e-02  1.6922190257670711e-02  3.2400683771568073e-02  3.2863881657498595e-02  3.1966012052019994e-02  3.1462850541726241e-02  3.2083869568688965e-02  3.1785640279298887e-02  2.7993240437611915e-02  2.7135561779870504e-02  2.6933896401953192e-02  2.6056320641661020e-02  3.0027644078712692e-02  3.0912603690409594e-02  3.0662723046986168e-02  3.0913379547733884e-02  3.0640770373634798e-02  2.9899354024012090e-02  2.9992541220514906e-02  4.3566901973949759e-02  4.4224391887012715e-02  4.2485855858919494e-02  3.9722337309434086e-02  4.1235477971650267e-02  4.1080518683029352e-02  4.2787808538034787e-02  2.2507121648380899e-02  2.2937582057622051e-02  2.2305059640812048e-02  2.1835688633099183e-02  2.2477417056799204e-02  2.6523211054492599e-02  2.5321051146120790e-02  2.6047104149758665e-02  2.4605650099228951e-02  2.1600293790620374e-02  2.3903760990927773e-02  2.3408610003030753e-02  2.3722798719696646e-02  2.4324512843066297e-02  2.4108734440623884e-02  2.4621947271619843e-02  2.4357249360830925e-02  2.4115572442260789e-02  2.4365527200417337e-02  1.8172093571229189e-02  1.7574593096877006e-02  1.7537595602465407e-02  1.8811088188490956e-02  1.9328334800114717e-02  1.8823189276601218e-02  2.0995048074036207e-02  2.1052241169477424e-02  2.2722082488286333e-02  2.3323540370889781e-02  2.3611466336152093e-02  2.3078154116334383e-02  2.3328407579511073e-02  2.3019332067690877e-02  2.3554350717511118e-02  2.1951007701176372e-02  2.1788391430050656e-02  2.2333693885440015e-02  2.1246935591958109e-02  2.2686580897143111e-02  2.2889307551856711e-02  2.2488833909878922e-02  2.3563421907275360e-02  2.2349912102225339e-02  2.1798207648649204e-02  2.2154309926383287e-02  3.2255602176135330e-02  3.1336240871044287e-02  3.1845551309857473e-02  3.0874331943950447e-02  2.8910163792916003e-02  2.8690513360550628e-02  2.9771017514366185e-02  2.9936647207874718e-02  3.9507800996262998e-02  3.9384971553622451e-02  4.0448649294748215e-02  3.8566984584126544e-02  3.8675620851416195e-02  3.7000919497524418e-02  3.7700564697160363e-02  3.6924675450929048e-02  3.7778707721056320e-02  3.7052514360147663e-02  4.6863744983184498e-02  4.5166010961111419e-02  4.6323565372925223e-02  4.5686044765925818e-02  4.7260041573652892e-02  4.4410464896554210e-02  4.3526667616488497e-02  4.2984220838126835e-02  3.6148229484354845e-02  3.5061555885165047e-02  3.5701535106171245e-02  3.1350966032693994e-02  3.1827628562688205e-02  3.2369535791481066e-02  2.1539160999791668e-02  2.2711317028199514e-02  2.2437511234009146e-02  2.1277535440081510e-02  2.2178362478865524e-02  2.3361050115593820e-02  1.9501385344842283e-03  1.3755868929242569e-03  1.8045144098945698e-03  1.6120655171902587e-03  2.3649601065845322e-03  4.4505630134476608e-03  4.6633122697883750e-03  4.0188749444155583e-03  9.3968436710945985e-03  9.3615521165374277e-03  9.6189650515874428e-03  1.1589611180746254e-02  1.1244435220124256e-02  1.1592954278585092e-02  1.1231765679312718e-02  1.1103991992047996e-02  1.0836821285526183e-02  1.0774126958981549e-02  8.3113016697548420e-03  8.3810928142927163e-03  8.4634687059608887e-03  7.2695297384874832e-03  7.3227668492087741e-03  7.5803200053829942e-03  6.9152876607233814e-03  7.2549547682252413e-03  6.9465147800734303e-03  6.6177904798707006e-03  6.9961289825676669e-03  2.1801263754922910e-02  2.0052474780375997e-02  2.0919710543659077e-02  1.9796214449781014e-02  1.0587254446845974e-02  1.0441050130871054e-02  1.0710996269606868e-02  1.0704292013010586e-02  1.0450851681685410e-02  1.0515854498192718e-02  1.0783789378282220e-02  1.1093149124313997e-02  1.0839703662936774e-02  1.0872216827200149e-02  1.0648040118321832e-02  1.1357864955509750e-02  1.0205427738038481e-02  2.6351246621973329e-02  2.5294695794264868e-02  2.6585930122668213e-02  2.9039506800974994e-02  2.7779694789838754e-02  2.8040538543298771e-02  1.9933693336125012e-02  1.9720353109714144e-02  1.8859617253537915e-02  1.8664004970212998e-02  2.1920684745293656e-02  2.1033029698687269e-02  1.9525366285695948e-02  2.0580680669808900e-02  2.2358400391468726e-02  2.4743411976609717e-02  2.7381724215282042e-02  2.8493327513555874e-02  2.7090666507813069e-02  2.6034858797343810e-02  2.5529842327463994e-02  4.3911451455760295e-03  3.7046756039702221e-03  4.1265668064480628e-03  5.2285974778793660e-03  5.0348819890124394e-03  2.7347048948173150e-03  6.5511924567495765e-03  6.1507937637437053e-03  5.5097881761714575e-03  7.8144994045819469e-03  7.8825329550483193e-03  8.0216678754225189e-03  7.9085987675942514e-03  8.1441094764998952e-03  8.4685640921874500e-03  8.6096800650928562e-03  8.5586994740282883e-03  8.6150809565070340e-03  8.6523961862589316e-03  8.7434035493965667e-03  8.7728428405769200e-03  7.9025793935960757e-03  7.8914340263087357e-03  7.7688733165648984e-03  7.7868523295546131e-03  8.1451890095685618e-03  8.1807142473911583e-03  8.2731599360093278e-03  8.3160041637606180e-03  8.4016543321827411e-03  8.4515016425627844e-03  8.7595108044735415e-03  8.9522702287917616e-03  8.8914609201362696e-03  8.8747238834804426e-03  8.8269913834116906e-03  8.9110272874361150e-03  8.9387473361677607e-03  8.8946744028658778e-03  1.2257534120879425e-02  1.2121277986937799e-02  1.1876028392300141e-02  1.2004799954611983e-02  1.1883225968711327e-02  9.6196461225236778e-03  9.6608845651484816e-03  9.6315913743455391e-03  9.3440809556108520e-03  9.2837488534775608e-03  9.2710493930514282e-03  1.3265747998007921e-02  1.3049100776687183e-02  1.2761564042647857e-02  1.5957932299374724e-02  1.3633836868372632e-02  1.3424441349788024e-02  1.3861219316200910e-02  2.6334918622982803e-02  2.3825265001719567e-02  2.4241427125948720e-02  2.4837681177951855e-02  2.5363892090231127e-02  1.4235134825850137e-02  1.4439351472636220e-02  1.4424423314609847e-02  1.4235969241186076e-02  1.4357608675960450e-02  1.4109638167877990e-02  1.4112620779838552e-02  1.3103477946971797e-02  1.3386630498424090e-02  1.3311770538985412e-02  1.3609882020163283e-02  1.3443465499169993e-02  1.3576618701875647e-02  1.3667112886605047e-02  1.3854787680204305e-02  1.3837966223135736e-02  1.3950244817609944e-02  1.3880013485019063e-02  1.3738667632984270e-02  1.3803907890743306e-02  1.3148710248602629e-02  1.3377209793781535e-02  1.3088462360612714e-02  1.2771693583004753e-02  1.3020856992153228e-02  1.2705678748058124e-02  1.4002189164353330e-02  1.4214264873819155e-02  1.4137655608168336e-02  1.3975483039013649e-02  1.4134663506714738e-02  8.0323167076167407e-03  7.6822738085514652e-03  7.7403391987585779e-03  9.9601709831321841e-03  9.9668332175219532e-03  1.0255562632400364e-02  9.6622054398346306e-03  5.4631187862078275e-03  4.8616623522841837e-03  5.2504623117310620e-03  5.1038958864438461e-03  5.7181922428646802e-03  6.0302841620508453e-03  8.5055631697316079e-03  8.5827163109633252e-03  8.5415307073237919e-03  8.4176781074481039e-03  8.4826416448722450e-03  8.2042011395861009e-03  8.2464221125215127e-03  8.0693658852300162e-03  8.4512390866962085e-03  8.3403726417216086e-03  7.4139388772905858e-03  6.9785108848681374e-03  7.1173793677627717e-03  7.3074568620447970e-03  7.6973151993804702e-03  7.7826713731162615e-03  5.7394998718668863e-03  6.3118514353291931e-03  6.1011978590880395e-03  1.1239509351137367e-02  1.1947347284076360e-02  1.1706796154170820e-02  7.2908659073839394e-03  7.6517615827006273e-03  1.3351147440255128e-02  1.4144194286128585e-02  1.4187801257781834e-02  1.4235386137431661e-02  1.4088231354694671e-02  1.4206868195806703e-02  1.4292650743491954e-02  1.4117835158510750e-02  1.3774073579861958e-02  1.3951124974830188e-02  1.4105600771083164e-02  1.3522921606013235e-02  1.3681289926825024e-02  1.3569935531561010e-02  1.3730765355580767e-02  1.3315050768564055e-02  1.3187983214617519e-02  1.1943683996612536e-02  1.1712805911934781e-02  1.1610521966882177e-02  1.3364793149859959e-02  1.3453297508021312e-02  1.3754403234527104e-02  1.3859903141604306e-02  2.7326111231180505e-02  9.3421087800275859e-03  9.3976798341979528e-03  9.4506405572739594e-03  9.5569783578570364e-03  9.4424820933853432e-03  9.4834093625007186e-03  9.3902928063207339e-03  9.1013259790358424e-03  9.0825204030728426e-03  9.0747423377102454e-03  9.0948554059985601e-03  9.1234291570501079e-03  9.1347086542530632e-03  9.0482192778672220e-03  9.0278544998081793e-03  9.0221474888938294e-03  9.0511369671197918e-03  8.9957132099866000e-03  9.0067672861313293e-03  8.9844980082484337e-03  9.0172447018415681e-03  1.1833754630232052e-02  1.1901290925490502e-02  1.1506280123045450e-02  1.2867260611262088e-02  1.2513581121894077e-02  1.2780944344908774e-02  1.2674568383859195e-02  1.3005917689414920e-02  1.2423129082338873e-02  1.3683085091560760e-02  1.3460946528780358e-02  1.3470431360380720e-02  1.0387366247533572e-02  1.0127553590580745e-02  1.0405563274920922e-02  1.2024681802024980e-02  1.2086618390430768e-02  1.2372830493785857e-02  1.0662122772330612e-02  1.0540574325828594e-02  1.0679438600505371e-02  1.0833705277666993e-02  1.0768737435952323e-02  1.0951256349423434e-02  1.0707661754167624e-02  1.0677075434207563e-02  1.0830957247844889e-02  1.2163611812763868e-02  1.2299425730393099e-02  1.2260468476093009e-02  1.2126642167042082e-02  1.2023553264723069e-02  1.2060850176585799e-02  1.1942613272106210e-02  1.1902398639447937e-02  1.1590312813848810e-02  1.1562721178582720e-02  1.1461568566953243e-02  1.1319204170235669e-02  1.1442208483700301e-02  1.1591669466133846e-02  1.1628279215737971e-02  1.1456926388608478e-02  9.5612590204760262e-03  9.6210559186077002e-03  9.5065450081006746e-03  9.5563564163350032e-03  1.0485217386127330e-02  1.0721757049374853e-02  1.0512870464372874e-02  1.0265282644729874e-02  1.0455997485922724e-02  1.0560077258004848e-02  1.0395654384493188e-02  1.0470740195058559e-02  1.0635198955816615e-02  1.0678048140515501e-02  1.0049149729903853e-02  1.0223542891644087e-02  1.0246614055045834e-02  1.0424522216705003e-02  1.0386311016325520e-02  1.0344622985279484e-02  1.0535844197282582e-02  1.0195172976828246e-02  9.9794768085732788e-03  1.3443173848758911e-02  1.3290209483469236e-02  1.3504677391094093e-02  4.9715060736155933e-03  5.4178003565486278e-03  4.6371045675921568e-03  1.3430527001350537e-02  1.3521270072763715e-02  1.2954363460520233e-02  1.2553748984460655e-02  1.7632320931703853e-02  1.7361810710303599e-02  1.7666175938840602e-02  1.7902270536686984e-02  1.7574600657001185e-02  1.4868148865774611e-02  1.5038509685503687e-02  1.7438011891935477e-02  1.7480515623781105e-02  1.7189713379691524e-02  1.6126799405411407e-02  1.7258874928048069e-02  1.7324725461825553e-02  1.7486819077128006e-02  1.6549496974752012e-02  1.6482551733434284e-02  2.0710407259439435e-02  2.0512627653104853e-02  2.0227752396904462e-02  2.0218354768757021e-02  2.0067081150745375e-02  1.9813611130856293e-02  1.9674839376546668e-02  1.9302401754814569e-02  1.9457385020421551e-02  1.9095943123589681e-02  1.8903562682091573e-02  1.8529061841164270e-02  1.7578847212648074e-02  2.0623151382039625e-02  1.5960315008333989e-02  1.6100117035100128e-02  1.5500870117822077e-02  1.5345053037863375e-02  1.4829155244598794e-02  1.4483387469023537e-02  1.5035306805391176e-02  1.2621519697741848e-02  1.3012383685023655e-02  1.2225188073522800e-02  1.3755554965484600e-02  1.3389640153532391e-02  1.4717593367958077e-02  1.6260170791039502e-02  1.6674186375244419e-02  1.6797721133243491e-02  1.6716515977323036e-02  1.3466376072285013e-02  1.2997476085345053e-02  1.5132446866239234e-02  1.5304383882532706e-02  1.4253856735945399e-02  1.4433208027627991e-02  1.4104997980365592e-02  5.1295819596565810e-03  5.8603474103168032e-03  1.4264840862993218e-02  1.4532114352063759e-02  1.3955414556861227e-02  1.4434090705495383e-02  1.4288446159464674e-02  1.4521055273362605e-02  1.3575358555160217e-02  1.3705734055503778e-02  1.3815058804310101e-02  1.5742029657825431e-02  1.5285875427971040e-02  1.5347703383372756e-02  1.5131865067601401e-02  1.3635035708571396e-02  1.3445319998866593e-02  1.4001724030416782e-02  1.4216257972168982e-02  1.4101910196542729e-02  6.8870902723447182e-03  7.0715211194309277e-03  6.9832447277975163e-03  6.9500384833880262e-03  7.1895786172601339e-03  7.2555816059976103e-03  7.3531548694438682e-03  7.4933164589254739e-03  7.6457090719444787e-03  7.3526189307264421e-03  7.3465576416747690e-03  7.5189785556941738e-03  7.7124807910527102e-03  7.7433506006725182e-03  7.8634879803581616e-03  7.5886588000836537e-03  7.4390606378737893e-03  7.2983558347379969e-03  7.3243694470504252e-03  7.2853903460542331e-03  7.3594876662809276e-03  7.4164806523350849e-03  7.3529658761448992e-03  7.4997138690984302e-03  7.4427324913870947e-03  7.2228672871432545e-03  7.5669462048514359e-03  7.6007463700068535e-03  7.7129080887988755e-03  7.5482183553544600e-03  7.9741005533393028e-03  7.8320016466634119e-03  7.6861410504172854e-03  6.9243129249381384e-03  6.9909417216284311e-03  7.2849688634219895e-03  8.9222208126976468e-03  8.9817791023304797e-03  8.9433723123792802e-03  8.8819268462800895e-03  8.0115563460556420e-03  8.1994265021297745e-03  7.7367514012787013e-03  7.9126317587243714e-03  7.8188691106909763e-03  7.5810388982432871e-03  7.6792087334709228e-03  7.7725605910765258e-03  7.8878590616374838e-03  8.0695130937680215e-03  8.2541803730344747e-03  8.1781575460029635e-03  8.0091389136070883e-03  7.9213492699882343e-03  7.8421007606465122e-03  8.0333279642746391e-03  7.2652720922993137e-03  7.3246043109056504e-03  7.3781981151877576e-03  7.4488152062313212e-03  7.5002310278594296e-03  7.9892314471019729e-03  7.8967382465701154e-03  7.8522936213353718e-03  7.7825718581818054e-03  7.6574268787662075e-03  7.9117917584433060e-03  7.7603676429014792e-03  7.9643636953685322e-03  8.0450015206340979e-03  8.0985883433142801e-03  7.9605079798137877e-03  8.2401003862749740e-03  8.3770134725971099e-03  8.5303711492209673e-03  8.2314702142728437e-03  8.3753149736961290e-03  8.4932675090820288e-03  8.5158870264572424e-03  2.8835629437502806e-02  2.929736431