<?xml version="1.0"?>
<VTKFile type="UnstructuredGrid"  version="0.1"  >
<UnstructuredGrid>
<Piece  NumberOfPoints="6340" NumberOfCells="12376">
<Points>
<DataArray  type="Float64"  NumberOfComponents="3"  format="ascii">-0.0193060003221035 0.02073399908840656 0  -0.01990599930286407 0.0213600005954504 0  -0.02015000022947788 0.02039000019431114 0  -0.02060999907553196 0.02107900008559227 0  -0.0195470005273819 0.01981800049543381 0  -0.01913199946284294 0.02160399965941906 0  -0.01955799944698811 0.02231100015342236 0  -0.01910700090229511 0.02313200011849403 0  -0.01994300074875355 0.02300699986517429 0  -0.01868700049817562 0.02233099937438965 0  -0.009056000038981438 0.01761999912559986 0  -0.009661000221967697 0.01853399910032749 0  -0.009996999986469746 0.01759600080549717 0  -0.01060700044035912 0.01855099946260452 0  -0.02408500015735626 0.0712909996509552 0  -0.02497600018978119 0.07156199961900711 0  -0.02512199990451336 0.07080700248479843 0  -0.02432800084352493 0.06513699889183044 0  -0.02495699934661388 0.06572400033473969 0  -0.02510100044310093 0.06486400216817856 0  -0.02582000009715557 0.06516999751329422 0  -0.01175499986857176 0.08363500237464905 0  -0.01259300019592047 0.08341799676418304 0  -0.01205100025981665 0.08287999778985977 0  -0.01848999969661236 0.07759299874305725 0  -0.0175550002604723 0.07786399871110916 0  -0.01803000085055828 0.07844900339841843 0  -0.01801900006830692 0.07700099796056747 0  -0.02137400023639202 0.02425600029528141 0  -0.02060299925506115 0.02446500025689602 0  -0.02089699916541576 0.02514800056815147 0  -0.02115499973297119 0.02584400027990341 0  -0.02168199978768826 0.02494700066745281 0  -0.02012000046670437 0.02536300010979176 0  -0.01980599947273731 0.02460700087249279 0  -0.01899500004947186 0.02472800016403198 0  -0.01932300068438053 0.02548900060355663 0  -0.02107599936425686 0.02355399914085865 0  -0.0219149999320507 0.02338300086557865 0  -0.02146000042557716 0.02235000021755695 0  -0.02104699984192848 0.02173300087451935 0  -0.02075299993157387 0.02279799990355968 0  -0.02032800018787384 0.02208600006997585 0  -0.01626300066709518 0.02205199934542179 0  -0.0167590007185936 0.02117599919438362 0  -0.01584799960255623 0.02114900015294552 0  -0.01710399985313416 0.022172000259161 0  -0.01793899945914745 0.0221599992364645 0  -0.01746699959039688 0.02304200083017349 0  0.04061299934983253 0.07574299722909927 0  0.04031800106167793 0.07489699870347977 0  0.04156100004911423 0.07494500279426575 0  0.04315099865198135 0.08570600301027298 0  0.04390599951148033 0.08590999990701675 0  0.04282300174236298 0.08639699965715408 0  0.02538999915122986 0.09422600269317627 0  0.02558499947190285 0.09352000057697296 0  0.02645700052380562 0.09374699741601944 0  0.02441100031137466 0.09466599673032761 0  0.02460299991071224 0.09381400048732758 0  -0.007224000059068203 0.09150200337171555 0  -0.006403000093996525 0.09175799787044525 0  -0.006988999899476767 0.09227500110864639 0  -0.006155999843031168 0.09253700077533722 0  -0.01719900034368038 0.09018500149250031 0  -0.01748399995267391 0.0895489975810051 0  -0.01654000021517277 0.08984799683094025 0  -0.01806499995291233 0.09014700353145599 0  -0.01457600016146898 0.09560199826955795 0  -0.01487100031226873 0.09625700116157532 0  -0.01527400035411119 0.09556499868631363 0  -0.01046499982476234 0.08995000272989273 0  -0.009705999866127968 0.09014099836349487 0  -0.01028500031679869 0.0906670019030571 0  -0.01123400032520294 0.08976499736309052 0  -0.01065499987453222 0.08924099802970886 0  -0.01142499968409538 0.08905600011348724 0  -0.01373299956321716 0.09111800044775009 0  -0.01427400019019842 0.09162399917840958 0  -0.0145420003682375 0.09091299772262573 0  -0.01258699968457222 0.09009899944067001 0  -0.01338499970734119 0.08990900218486786 0  -0.01279900036752224 0.08939199894666672 0  0.01128499954938889 0.08907099813222885 0  0.01230399962514639 0.08894500136375427 0  0.01169100031256676 0.08963800221681595 0  0.007662000134587288 0.07777900248765945 0  0.00814099982380867 0.07696299999952316 0  0.008679999969899654 0.07765199989080429 0  -0.008809999562799931 0.01669999957084656 0  -0.008046999573707581 0.01685900054872036 0  -0.009624999947845936 0.01663899980485439 0  -0.01047599967569113 0.01657599955797195 0  -0.01388000044971704 0.01675000041723251 0  -0.01407200004905462 0.01786799915134907 0  -0.01466299965977669 0.01699200086295605 0  -0.01332299970090389 0.01763200014829636 0  -0.01331300009042025 0.01868399977684021 0  -0.01255299989134073 0.01775900088250637 0  -0.01278000045567751 0.02164099924266338 0  -0.01325799990445375 0.02069500088691711 0  -0.01239100005477667 0.02068199962377548 0  -0.01198600046336651 0.0197759997099638 0  -0.01144600007683039 0.02060100063681602 0  -0.01287300046533346 0.01969500072300434 0  -0.01364899985492229 0.02170900069177151 0  -0.01498899981379509 0.0209989994764328 0  -0.01538100000470877 0.02198199927806854 0  -0.01451999973505735 0.02184700034558773 0  -0.01009800005704165 0.01948300004005432 0  -0.01143299974501133 0.03074299916625023 0  -0.01192899979650974 0.02988599985837936 0  -0.01102000009268522 0.02977699972689152 0  -0.006397000048309565 0.02913299947977066 0  -0.006829000078141689 0.03012200072407722 0  -0.007327999919652939 0.02927299961447716 0  -0.009193000383675098 0.01948099955916405 0  -0.006901999935507774 0.01872700080275536 0  -0.007811999879777431 0.01863900013267994 0  -0.00711899995803833 0.01787599921226501 0  -0.007222999818623066 0.01703000068664551 0  -0.006310000084340572 0.01721999980509281 0  0.04516100138425827 0.08238600194454193 0  0.04590699821710587 0.08178199827671051 0  0.04579799994826317 0.08292199671268463 0  0.0447859987616539 0.08318000286817551 0  0.01423600036650896 0.05735800042748451 0  0.01518999971449375 0.0570949986577034 0  0.01481099985539913 0.05804400146007538 0  0.02586299926042557 0.04047099873423576 0  0.0262289997190237 0.03937400132417679 0  0.02672200091183186 0.03998799994587898 0  0.02817099913954735 0.04408600181341171 0  0.02897699922323227 0.04326700046658516 0  0.02936000004410744 0.04391000047326088 0  0.02820499986410141 0.04742100089788437 0  0.02731899917125702 0.04768100008368492 0  0.02774699963629246 0.04668699949979782 0  0.02726900018751621 0.04599199816584587 0  0.02821500040590763 0.04568799957633018 0  0.02682599984109402 0.04697500169277191 0  0.02640599943697453 0.04795699939131737 0  0.02630800008773804 0.04631299898028374 0  0.0257399994879961 0.04568200185894966 0  0.02534399926662445 0.04662000015377998 0  0.02476599998772144 0.04597999900579453 0  0.04260199889540672 0.08457300066947937 0  0.04154499992728233 0.08470600098371506 0  0.04216999933123589 0.08402200043201447 0  0.04113699868321419 0.08412899821996689 0  0.005373999942094088 0.02277299948036671 0  0.006045000161975622 0.02320699952542782 0  0.005423000082373619 0.02387399971485138 0  0.006149000022560358 0.02419500052928925 0  0.02438000030815601 0.04691800102591515 0  0.02072999998927116 0.04965100064873695 0  0.02034899964928627 0.0505950003862381 0  0.01976599916815758 0.04992600157856941 0  0.02130700089037418 0.05031900107860565 0  0.02692399919033051 0.04865600168704987 0  0.01539000030606985 0.03349500149488449 0  0.01459200028330088 0.03342299908399582 0  0.01492299977689981 0.03248099982738495 0  0.01073999982327223 0.03923400118947029 0  0.009914999827742577 0.03928099945187569 0  0.01028400007635355 0.03834399953484535 0  0.009457999840378761 0.03839199990034103 0  0.009088000282645226 0.03932800143957138 0  0.009003999643027782 0.03750000149011612 0  0.009828000329434872 0.0374549999833107 0  0.01037099957466125 0.04017199948430061 0  -0.0257520005106926 0.06598600000143051 0  -0.02473399974405766 0.06653299927711487 0  -0.02569000050425529 0.06673199683427811 0  -0.02405299991369247 0.06602399796247482 0  -0.02373499982059002 0.06685800105333328 0  -0.02276699990034103 0.06717800348997116 0  -0.02326199971139431 0.06776600331068039 0  -0.02218100056052208 0.06662199646234512 0  -0.02181800082325935 0.06747999787330627 0  -0.02234799973666668 0.06805899739265442 0  -0.02585499919950962 0.06432899832725525 0  -0.01757599972188473 0.07929400354623795 0  -0.01850299909710884 0.07903199642896652 0  -0.01728899963200092 0.0869389995932579 0  -0.01813100092113018 0.08675699681043625 0  -0.01757399924099445 0.08621499687433243 0  -0.0184129998087883 0.08603700250387192 0  -0.01786299981176853 0.08548499643802643 0  -0.01662000082433224 0.0891840010881424 0  -0.01583000086247921 0.08936599642038345 0  -0.01567400060594082 0.09004600346088409 0  -0.01290399953722954 0.08265399932861328 0  -0.01054999977350235 0.0777290016412735 0  -0.009619999676942825 0.07800000160932541 0  -0.01010600011795759 0.07857500016689301 0  -0.009701999835669994 0.07939500361680984 0  -0.009200000204145908 0.07883100211620331 0  -0.01430900022387505 0.07512299716472626 0  -0.01477899961173534 0.07422400265932083 0  -0.01384500041604042 0.07450900226831436 0  -0.01291000004857779 0.0747930034995079 0  -0.01336499955505133 0.07389699667692184 0  -0.01708300039172173 0.07727699726819992 0  -0.0166229996830225 0.0766730010509491 0  -0.01756300032138824 0.07639200240373611 0  -0.01850399933755398 0.07611200213432312 0  -0.02290499955415726 0.06863699853420258 0  -0.02349100075662136 0.07072100043296814 0  -0.02311000041663647 0.07158999890089035 0  -0.02215700037777424 0.02393000014126301 0  -0.02239000052213669 0.02446000091731548 0  -0.02253899909555912 0.02497000060975552 0  -0.0227000005543232 0.02552000060677528 0  -0.02190699987113476 0.02567199990153313 0  -0.01946800015866756 0.02386300079524517 0  -0.0186500009149313 0.02397399954497814 0  -0.02029100060462952 0.02372200042009354 0  -0.02168099954724312 0.0228509996086359 0  -0.01772600039839745 0.01833800040185452 0  -0.01735500060021877 0.01909900084137917 0  -0.01840000040829182 0.01872999966144562 0  -0.01703500002622604 0.01793500036001205 0  -0.01825799979269505 0.023134000
[...]
<PointData  Scalars="pressure"> 
<DataArray  type="Float64"  Name="pressure"  format="ascii">5.0536555872828993e-02  5.0424823680676037e-02  5.0532965420543856e-02  5.0421195787398169e-02  5.0610940575001408e-02  5.0433584072820482e-02  5.0305322533813895e-02  5.0170746089419474e-02  5.0161157497979475e-02  5.0334219890757176e-02  5.0976480712655481e-02  5.0829887162073227e-02  5.1024328517585496e-02  5.0866566175704328e-02  2.3112807445335649e-02  2.3052024692362585e-02  2.3528230150628271e-02  2.6828682859887397e-02  2.6545394832672001e-02  2.6925694384595390e-02  2.6812497118162970e-02  1.3318954758241831e-02  1.3712644849546315e-02  1.3688753864677690e-02  1.8116821393119969e-02  1.7684832586491863e-02  1.7547456792943370e-02  1.8259703118650827e-02  4.9795486071305455e-02  4.9801385596855263e-02  4.9603300525985029e-02  4.9381943827988987e-02  4.9595363172277959e-02  4.9585467615608878e-02  4.9807750824115350e-02  4.9809704857475386e-02  4.9590792957766069e-02  4.9975133999401955e-02  4.9934988801120329e-02  5.0170928995257963e-02  5.0301413520820362e-02  5.0149469957468711e-02  5.0296740556029576e-02  5.0395866950724705e-02  5.0548655594775997e-02  5.0543096743957155e-02  5.0383753437077489e-02  5.0381470112928081e-02  5.0218654855378769e-02  9.2957148856390830e-03  8.2219479806613909e-03  9.1445148448893003e-03  1.6293295577092890e-02  1.6166609394645436e-02  1.6947004499457664e-02  2.2679764273188834e-02  2.1586414538307959e-02  2.3182638583773868e-02  2.2127827664133404e-02  2.0830687996667898e-02  1.0884235205060103e-02  1.0502679331019435e-02  1.0988119940885100e-02  1.0617349544675820e-02  1.3900849318555022e-02  1.4034699515990593e-02  1.3883106734369609e-02  1.3893348876160755e-02  1.3466098036863315e-02  1.3458178156165989e-02  1.3492930424819397e-02  1.2151301570780223e-02  1.1847041783118196e-02  1.2167247027341992e-02  1.2443144331157743e-02  1.2157786117779455e-02  1.2459695669048027e-02  1.3300354085225301e-02  1.3436028534685958e-02  1.3477728672212233e-02  1.2938590214963970e-02  1.3167696985479350e-02  1.2968806113266403e-02  1.2250427178554374e-03  1.4290790948925935e-03  1.7594762949454043e-03  8.2670736074479320e-03  9.2557695910620956e-03  8.1681918109686568e-03  5.1025302541053259e-02  5.0959457920044880e-02  5.1081599006846154e-02  5.1098116618463169e-02  5.1032639432200162e-02  5.0966196920517348e-02  5.0996026883311701e-02  5.0999201655299170e-02  5.0877882421889675e-02  5.1001005830215988e-02  5.0298067776883122e-02  5.0529467840366188e-02  5.0481970780252371e-02  5.0655274934718865e-02  5.0435152464813574e-02  5.0705981186137263e-02  5.0344646122932303e-02  5.0545474062671500e-02  5.0383101518137192e-02  5.0368986008726024e-02  5.0619146402824805e-02  4.7748127665424092e-02  4.8048136799047417e-02  4.7958919543665018e-02  4.6957974122861464e-02  4.6842945183594872e-02  4.7228551985558129e-02  5.0539888950687631e-02  5.0354824255014946e-02  5.0586984065135010e-02  5.0622410752748294e-02  5.0799465300582609e-02  5.0522517911058502e-02  1.4275578138505668e-02  1.4033330447258931e-02  1.4413660781220583e-02  1.4586370433365260e-02  1.5750284097791504e-02  1.6924041570119598e-02  1.6057192115609242e-02  3.9835415686492917e-02  3.9643784722794395e-02  3.9845062345010666e-02  4.0467778870256071e-02  4.0258585477763870e-02  4.0474280851168803e-02  3.9777526256760912e-02  3.9365575356062402e-02  3.9874653118476523e-02  3.9879972271060014e-02  4.0219629998780607e-02  3.9405320126320545e-02  3.8778843112273351e-02  3.9382507505818447e-02  3.9311334084851116e-02  3.8760132078132191e-02  3.8688600379044487e-02  1.5661712033815077e-02  1.5973346097749593e-02  1.5380648351179232e-02  1.5601102709313884e-02  4.5198507732970468e-02  4.4892607702436423e-02  4.4930103347543091e-02  4.4640364093910687e-02  3.8010911913925735e-02  3.2523213564330432e-02  3.1094485657974812e-02  3.1178702683462553e-02  3.2442370211800166e-02  3.8650135379650667e-02  3.9624038022706295e-02  3.9724018296640726e-02  3.9985323311947485e-02  3.6293547857744371e-02  3.6156498144137975e-02  3.7112012069493355e-02  3.7033619837188114e-02  3.6041157702742535e-02  3.7874322484137579e-02  3.7899826551636123e-02  3.5257060506744230e-02  2.6441379189044691e-02  2.6123828967165752e-02  2.6061564080690734e-02  2.6339520498298633e-02  2.5828791743857347e-02  2.5490711805640883e-02  2.5195700180675511e-02  2.5732704806697634e-02  2.5122883880283931e-02  2.4859894334125429e-02  2.7282836015841250e-02  1.7004463722910132e-02  1.7398606768042973e-02  1.4244120900885792e-02  1.4450890140836963e-02  1.4430074006038959e-02  1.4645795526756758e-02  1.4658043618004711e-02  1.3922017130548962e-02  1.3754397057366266e-02  1.3700899709729170e-02  1.4082922402610314e-02  1.4829212027075340e-02  1.4370831337252366e-02  1.4407076356888062e-02  1.3977919366476995e-02  1.3940031757344137e-02  1.7498572926311021e-02  1.8114740539157737e-02  1.7467080467824570e-02  1.6866629849447423e-02  1.7414261710458994e-02  1.7801221022350117e-02  1.7908646796946329e-02  1.8402481901839414e-02  1.8883369096189657e-02  2.4585368089298357e-02  2.3382957711406319e-02  2.2769250789210348e-02  4.9800833162793046e-02  4.9654047319288075e-02  4.9504067297872760e-02  4.9328018070100274e-02  4.9367389363144186e-02  5.0000521113382317e-02  5.0002407823727238e-02  4.9994678332412328e-02  5.0060420313783750e-02  5.0788165002313410e-02  5.0783867636669193e-02  5.0738221134826865e-02  5.0843776367199237e-02  5.0193336001504330e-02  5.0214425136162859e-02  5.0015170911202403e-02  5.0027605584014284e-02  4.7818457482287774e-02  4.7537847105646208e-02  4.7578265733953073e-02  5.0239254640444646e-02  4.9672850177206448e-02  4.9363873317103027e-02  4.9476205466488024e-02  4.9564810139284890e-02  4.9876200474806412e-02  4.9043472439619186e-02  4.8703128017755955e-02  4.8851237913744419e-02  1.4817093385530857e-02  1.4734172830557772e-02  1.5075579303300229e-02  1.4241761549677278e-02  1.4607845482934910e-02  1.4733609728521033e-02  1.1622221968523531e-02  1.1657980837973966e-02  1.0987746242487573e-02  8.4070087526672728e-03  1.8690335527094440e-02  1.9567117548723634e-02  1.8522804645306784e-02  1.7666808854118331e-02  1.8056106820632682e-02  1.7491531885621872e-02  1.5773032713759915e-02  1.5229907227766815e-02  1.5344498726588166e-02  1.4835165294010423e-02  1.5987105710595903e-02  1.6828998902763445e-02  1.7003489606052330e-02  1.7570701739054981e-02  1.7716403069757636e-02  1.6971678582244659e-02  1.6307144147678008e-02  2.0741548338538359e-02  2.0018366391518098e-02  1.8925108157590961e-02  1.9332626685331405e-02  2.0766904161488284e-02  1.9673555249976184e-02  2.1468263474056115e-02  1.1568007619047112e-02  1.1934795460829779e-02  1.1883419265753823e-02  1.1522481625776824e-02  1.0404973903691590e-02  8.9226017842300859e-03  8.6757447020228903e-03  8.1589869312321157e-03  1.1107134232730419e-02  1.3797500293707337e-02  1.3565880472341488e-02  1.3594078362850062e-02  1.3595282572049412e-02  1.3574540181187263e-02  1.3684366412328886e-02  1.3432487707456949e-02  1.3554564796110504e-02  1.3434246723717017e-02  1.3321247536844504e-02  1.0277659153442328e-02  1.0512823304134881e-02  1.0020890419494333e-02  1.1808808776389533e-02  1.2030863480925448e-02  1.2200581220437145e-02  1.3210327331258178e-02  1.1834510645963912e-02  1.2213889653255816e-02  1.2261040796991286e-02  1.3427634901407968e-02  1.3421235437203522e-02  1.3290287328220005e-02  1.3124665654597151e-02  1.3140746198651987e-02  1.2442997025928763e-02  1.2701046507545020e-02  1.2705197387741334e-02  1.2712199873766287e-02  1.2932257164055582e-02  1.2726595443691532e-02  1.3120705452466718e-02  1.3654334506103372e-02  1.3575803548234910e-02  1.3338218460683256e-02  1.2926065439485528e-02  1.1204095978707845e-02  1.0918960526378375e-02  1.0572429676408566e-02  1.0233237268887594e-02  1.1529892576794942e-02  1.1083821219836480e-02  1.1352775408992630e-02  1.1766039928824329e-02  1.4528625436877197e-02  1.4278327078489323e-02  1.4582481794602297e-02  1.4444515133721922e-02  1.4301977299818781e-02  1.4102372819024420e-02  1.4322101408820733e-02  1.4185259575851839e-02  1.4219718783875197e-02  1.4007915276388807e-02  1.6839774109701305e-02  1.6420918259521258e-02  1.7550958474604389e-02  1.5776601679956332e-02  1.6160917907103240e-02  1.4458169007663875e-02  1.4550707185967742e-02  1.4107872923730549e-02  1.1350934188018658e-02  1.0879071018047205e-02  1.0713177765865998e-02  9.8480063626431077e-03  9.5003575698477810e-03  1.0286294774765975e-02  2.5107857550882365e-03  3.1596516020714841e-03  2.4789343251129768e-03  1.8786168931225998e-03  1.8870394109106424e-03  2.5460606376664779e-03  1.0525557928352160e-02  1.1675175790504647e-02  1.1789973204561292e-02  1.0405565457835293e-02  1.0670047253428456e-02  1.5304870403336751e-02  1.4607316041549192e-02  1.4497444163867727e-02  1.8269468127115839e-02  1.8171853456979515e-02  1.9664392844111277e-02  2.8537716186294845e-02  2.7199763926324567e-02  2.9012397251994060e-02  2.7599177858716111e-02  3.0194623225037447e-02  2.8620930260878120e-02  2.8885616718169922e-02  4.7461485835785314e-02  4.7243686092998324e-02  4.7165587823280480e-02  2.0236026285918217e-02  2.0446146608087249e-02  2.0428336000690623e-02  1.9291077900159024e-02  1.8706693584185738e-02  1.8685697165431718e-02  1.8756767367578808e-02  1.7995886659117347e-02  3.2136083960717984e-03  3.7072630690775550e-03  3.3927662094562598e-03  2.9352938945661801e-03  1.5459014032052562e-02  1.5576146482606794e-02  1.6737820785317877e-02  1.5439719761440771e-02  1.4278468788722852e-02  1.4098075898971512e-02  1.5373648044024565e-02  1.6872682272771292e-02  1.5253324975953915e-02  1.2530492553668894e-02  1.3210003272223837e-02  1.4347681585351126e-02  1.1541745826895728e-02  2.6590702750295282e-03  2.0717917651184303e-03  2.7293989474888401e-03  5.4434556458837022e-03  4.8520983248391374e-03  4.5099033358222060e-03  9.2479558721549060e-04  5.3843825862887225e-04  6.5777393823949690e-04  3.2965488738224101e-04  1.3840659982457919e-03  1.3388363805203526e-03  2.6386645441914269e-04  5.5915525659392187e-04  9.2708371655301526e-04  2.0292960469044854e-03  3.6059454203693029e-03  4.1175844538747942e-03  3.2068988706606717e-03  2.7498171924708950e-03  2.1876361120158339e-03  7.2664840188424815e-03  8.1873053179291957e-03  7.3782758988822474e-03  6.4855020198026905e-03  6.6444276907277090e-03  9.3264733495473668e-03  6.5299244514763427e-03  6.3962534556706290e-03  7.4556874861104617e-03  5.0688288612175468e-02  5.0903680436860568e-02  5.0950146813110476e-02  5.0894746053915786e-02  5.0720431594467701e-02  5.1059197175610811e-02  5.1076407995596387e-02  5.0791007123670101e-02  5.0942755728134385e-02  5.1044187729243080e-02  5.1098273780470486e-02  5.1040321101245831e-02  4.8115327641183550e-02  4.8353892765792453e-02  4.8414151587745986e-02  4.8151636525399451e-02  4.8143131585566282e-02  4.8334374051836673e-02  4.8002857060857759e-02  4.8176309586180757e-02  4.7818237558761106e-02  4.7978961573502579e-02  4.6575513909629808e-02  4.8240093503274559e-02  4.8043071191959850e-02  4.8488546370224900e-02  4.7849979083094754e-02  4.7594088579234473e-02  5.0740454698661237e-02  5.0413590726313053e-02  2.7360409160545641e-02  2.7592277105869589e-02  2.8184966729596896e-02  2.7915596940349126e-02  2.8111954123002915e-02  3.4581409854010946e-02  3.6205526788405232e-02  3.5817524747913707e-02  3.6409781144905173e-02  3.5592653641081148e-02  3.6946517515531400e-02  2.4737893072687703e-02  2.2717761731394996e-02  2.3388140424232561e-02  7.6387634425411181e-03  2.8275509031173665e-02  2.8917825015591810e-02  2.9902387898736418e-02  1.3995600086264806e-02  1.3122151528989092e-02  1.3161556300305355e-02  1.3571582535638532e-02  1.3561926273637342e-02  3.8758441783477510e-02  3.9410484516844944e-02  3.8584955387306955e-02  3.9624456094889127e-02  3.9644612579209593e-02  3.8607689614489252e-02  3.9182346993067510e-02  3.0412404229384803e-02  3.2137848841553178e-02  3.0760372271682317e-02  3.3718000945745660e-02  3.3500044048388362e-02  3.2416237177532642e-02  3.7390599860588555e-02  3.8402057491359554e-02  3.7935301227617735e-02  3.7527030143994458e-02  3.6465462575441178e-02  3.6207592824392690e-02  3.7196659201026820e-02  3.4589255560913031e-02  3.5303964175655178e-02  3.3620572590085843e-02  3.1888208749055597e-02  3.2551774758373751e-02  3.0746776455720441e-02  3.5200471081498090e-02  3.5345999266862355e-02  3.4247171277564617e-02  3.1424390723006089e-02  3.3251564512478238e-02  1.6202499566061072e-02  1.6272772651576891e-02  1.6210001093937519e-02  2.0790741160417219e-02  2.1005362473010453e-02  2.2304949067024120e-02  1.9699922229743302e-02  1.8528163675291927e-02  1.8921047546123865e-02  1.8892191749581268e-02  1.8609300289146126e-02  1.8120545376383110e-02  1.7930678034574283e-02  1.7718764522766099e-02  1.8234894089382878e-02  1.7265079535423063e-02  1.7455748818613406e-02  1.8277592857304483e-02  1.6790605753371435e-02  1.6017924468850211e-02  1.6195095327661356e-02  1.6863335186240138e-02  1.6708162009180839e-02  1.5794766029153532e-02  1.6401694076425197e-02  1.6108979841713687e-02  1.6083230655545892e-02  1.5595588472257440e-02  1.5184357107821006e-02  1.7845863988539979e-02  1.7234638477248116e-02  1.7417327434117474e-02  1.0357497311320674e-02  9.9250026947152320e-03  9.7546895248516504e-03  1.6416857829096295e-02  1.6257475403750450e-02  3.9974377913666599e-02  4.0053934851847883e-02  4.0501969539768812e-02  4.0347053878118315e-02  3.9513111835096926e-02  4.0399635911025258e-02  4.0441591357931170e-02  4.0451451304373436e-02  4.0140898954030883e-02  4.0218570913724785e-02  4.0199431253334778e-02  3.9813099036716287e-02  3.9929412653222952e-02  3.9585365857865998e-02  3.9719792326420880e-02  3.7962698982509889e-02  3.7141191789169768e-02  3.4127413594426892e-02  3.2848945990541278e-02  3.3024291286352397e-02  3.9698355721818609e-02  3.9949840250463893e-02  3.8793448566734438e-02  3.9824572689561487e-02  1.5062274167770728e-02  4.4334844687942167e-02  4.4573563585177951e-02  4.4284853321343104e-02  4.3675285037881817e-02  4.3732788694417254e-02  4.3963335639866451e-02  4.4053226115006151e-02  4.5639965150598726e-02  4.5459650377812230e-02  4.5846341419356021e-02  4.6029948147278947e-02  4.5815087887501750e-02  4.5437265374677627e-02  4.6453691416180234e-02  4.6263542505633810e-02  4.6671983334974951e-02  4.6050788122697445e-02  4.6484391885922072e-02  4.6080323700782862e-02  4.6902561594934250e-02  4.7097772812917070e-02  3.1004321633885890e-02  3.0906706430727293e-02  2.9450338827696057e-02  3.5000590216166777e-02  3.3754002261846480e-02  3.5022982531252161e-02  3.5051628151423764e-02  3.6127689657875633e-02  3.3818944397985926e-02  3.7752233041238301e-02  3.6679858921630865e-02  3.6957099275011659e-02  1.8534497012860217e-02  1.8214925272022613e-02  1.9437283263821690e-02  2.6913834476076582e-02  2.8063320338897108e-02  2.8779555765390728e-02  4.0353814383689776e-02  4.0628182105044083e-02  4.0383833309858674e-02  4.0074533063788623e-02  4.0107101771511749e-02  3.9840889210129855e-02  3.9479246161152920e-02  3.9814787706391533e-02  3.9425914643581375e-02  3.9261286439037188e-02  3.9315337242130613e-02  3.9280195896826589e-02  3.9199699431639964e-02  3.9209752456991070e-02  3.9080737203962948e-02  3.8969337652094350e-02  3.9108894616124962e-02  3.9291741124766216e-02  3.9309986070530357e-02  3.9412959354567512e-02  3.9471641414120365e-02  3.9390659662910041e-02  3.9248931315614882e-02  3.9116164521083630e-02  3.9259887306453418e-02  4.0960427193272475e-02  4.0279225038812941e-02  4.0396008074757031e-02  3.9638053535349591e-02  3.2433791800049530e-02  3.3106007832634426e-02  3.1776730354382277e-02  3.1814983513050163e-02  3.3167238118519668e-02  3.9902538909331292e-02  3.7198592215786745e-02  3.6472858837445790e-02  3.4388206628100132e-02  3.3715946448690928e-02  3.2130751554678580e-02  3.3476297894656726e-02  3.2614207294816615e-02  3.3898515782490070e-02  3.4694429454501220e-02  3.5478453298284036e-02  3.5760704274422926e-02  3.4346802170331356e-02  3.5058510397289952e-02  2.3631061849702595e-02  2.3752360741628595e-02  2.2989125784084352e-02  1.4153830372621445e-02  1.4485850739403082e-02  1.4488856316142681e-02  2.4208933660028947e-02  2.3952806631985860e-02  2.5496660461286996e-02  2.6585555654109815e-02  1.5099614894784820e-02  1.5156537025090297e-02  1.4774197832358298e-02  1.5043572906214928e-02  1.5410444933841723e-02  1.6916412846628433e-02  1.7497222199080814e-02  1.6045740971899466e-02  1.5839517375757371e-02  1.6182624660546385e-02  1.7119937547742187e-02  1.5820191525170706e-02  1.5495312934391008e-02  1.5714615963937761e-02  1.6497029008693546e-02  1.6884618047326397e-02  1.3952032657451699e-02  1.4053902205842586e-02  1.4060693389428317e-02  1.4144621348326874e-02  1.4203919385623312e-02  1.4281493052681199e-02  1.4354407209551525e-02  1.4535660508848082e-02  1.4358381100626625e-02  1.4584806611918914e-02  1.4425933284327404e-02  1.4686496502620891e-02  1.3371853140013804e-02  1.4047221471345654e-02  1.1004886946606188e-02  1.1504502498942370e-02  1.1404170602648613e-02  1.0894609669924346e-02  1.4008595819159074e-02  1.3553299136113722e-02  1.3588371327984737e-02  1.2141736101566769e-02  1.2603043519524775e-02  1.2594249158859266e-02  1.2642400057807835e-02  1.2168179073908282e-02  1.3128509243044158e-02  1.1981705027559610e-02  1.1617837136144192e-02  1.2070002114865974e-02  1.3273107156573675e-02  1.3076125957342057e-02  1.3900420437288105e-02  1.8049040178561841e-02  1.7463396271368496e-02  1.8078897087651334e-02  1.8721462164581551e-02  1.8697339523719412e-02  1.4924995196307130e-02  1.4971351733325203e-02  1.9393299557763352e-02  1.9389311820038030e-02  1.9330346393545039e-02  2.1179059701135726e-02  2.1315553466911458e-02  2.0620359688738758e-02  2.3781062805102456e-02  2.3295392536650784e-02  2.3089587232773871e-02  1.7314244557341704e-02  1.9029560213057899e-02  1.8525267329231383e-02  1.9151613434894278e-02  2.3660292123707585e-02  2.4003678871643230e-02  2.2579989013508238e-02  2.2062043045352392e-02  2.2398525883755176e-02  4.9134046882649052e-02  4.9135337544039648e-02  4.8874190294072882e-02  4.8886569699685592e-02  4.8926198801938353e-02  5.0623306887413899e-02  5.0677979297883723e-02  5.0669688888416387e-02  5.0756546823492954e-02  5.0520942602889370e-02  5.0616101823554881e-02  5.0211339551788095e-02  4.6913733288857576e-02  4.6875147062513271e-02  4.6514402209489880e-02  4.7260824765821628e-02  4.7633233156983305e-02  4.7984368671194343e-02  4.7934194951858779e-02  4.8492573634115757e-02  4.8491145337705793e-02  4.8184127667468019e-02  4.8170433311111094e-02  4.7857744258049006e-02  4.7857323110242385e-02  4.8486796564404779e-02  4.7871417358839680e-02  4.7526328227890095e-02  4.7190221129902434e-02  4.7531377605161663e-02  4.6149529794554840e-02  4.6559045719306962e-02  4.6967940814879247e-02  4.9342318043375966e-02  4.9345742219986832e-02  4.9809660014710551e-02  4.0395413981069578e-02  3.9538793933514886e-02  3.9733490825905951e-02  4.0533613690417213e-02  4.7587122964251917e-02  4.7309494395579736e-02  4.7889929563981373e-02  4.7592071022949940e-02  4.7572516327565373e-02  4.8191509118006487e-02  4.8182152535529522e-02  4.7193258439829758e-02  4.6843780545316370e-02  4.6498328757821318e-02  4.6157009842074118e-02  4.6107952781173196e-02  4.7273134755815224e-02  4.7246979554801553e-02  4.7211799612684700e-02  4.6898764551011864e-02  4.9331021557166919e-02  4.9568979566622935e-02  4.9305700261903833e-02  4.9035475747543217e-02  4.9279501550392020e-02  4.9278101456644290e-02  4.9077486318998803e-02  4.9372482460669151e-02  4.8642535449818218e-02  4.8715464932737956e-02  4.8566306862161693e-02  4.9163364527369316e-02  4.9573036282477695e-02  4.8464288038510842e-02  4.8658931687098783e-02  4.8776115194111846e-02  4.8518440442188657e-02  5.0168813616316033e-02  5.0374192273180705e-02  4.9967387741030780e-02  4.9235857226196798e-02  4.9439707018310915e-02  4.9093461682084255e-02  1.4566146400077532e-02  1.428634117