<?xml version="1.0"?>
<VTKFile type="UnstructuredGrid"  version="0.1"  >
<UnstructuredGrid>
<Piece  NumberOfPoints="6340" NumberOfCells="12376">
<Points>
<DataArray  type="Float64"  NumberOfComponents="3"  format="ascii">-0.01953399926424026 0.02080300077795982 0  -0.02032599970698357 0.02152499929070473 0  -0.02053000032901764 0.02051999978721142 0  -0.02118399925529957 0.02136700041592121 0  -0.01974800042808056 0.01987599954009056 0  -0.01939800009131432 0.02168799936771393 0  -0.01998700015246868 0.02248699963092804 0  -0.01950700022280216 0.02328599989414215 0  -0.02054600045084953 0.02332600019872189 0  -0.01892100088298321 0.02240299992263317 0  -0.007526000030338764 0.01807999983429909 0  -0.008256999775767326 0.01890799961984158 0  -0.008584000170230865 0.01796600036323071 0  -0.009322999976575375 0.01883300021290779 0  -0.02556400001049042 0.08008600026369095 0  -0.02648499980568886 0.08068899810314178 0  -0.02666500024497509 0.07988700270652771 0  -0.0261790007352829 0.07323200255632401 0  -0.02678699977695942 0.07409500330686569 0  -0.0269980002194643 0.07318300008773804 0  -0.02772000059485435 0.07376000285148621 0  -0.01160500012338161 0.09037899971008301 0  -0.01252300012856722 0.09037499874830246 0  -0.01203600037842989 0.08953899890184402 0  -0.01947199925780296 0.08538500219583511 0  -0.01847399957478046 0.08538399636745453 0  -0.01892499998211861 0.08621899783611298 0  -0.01902000047266483 0.08454400300979614 0  -0.0225019995123148 0.02511199936270714 0  -0.02153800055384636 0.02507499977946281 0  -0.02199500054121017 0.02597500011324883 0  -0.02240600064396858 0.0268779993057251 0  -0.02297800034284592 0.02602799981832504 0  -0.0210219994187355 0.02594099938869476 0  -0.02054399996995926 0.02503900043666363 0  -0.01953399926424026 0.02500000037252903 0  -0.02002899907529354 0.02589800022542477 0  -0.02203799970448017 0.02418899908661842 0  -0.02309500053524971 0.02429600059986115 0  -0.02239000052213669 0.02292999997735023 0  -0.02180399931967258 0.02217100001871586 0  -0.02154600061476231 0.02326899953186512 0  -0.02093400061130524 0.02240400016307831 0  -0.01598699949681759 0.02197699993848801 0  -0.01650799997150898 0.0210999995470047 0  -0.0154389999806881 0.02107400074601173 0  -0.01698300056159496 0.02210099995136261 0  -0.01799700036644936 0.02216099947690964 0  -0.01749899983406067 0.02303300052881241 0  0.04165399819612503 0.08502999693155289 0  0.04152199998497963 0.08415199816226959 0  0.04278400167822838 0.08451399952173233 0  0.04193099960684776 0.09649000316858292 0  0.04266500100493431 0.09691599756479263 0  0.0416870005428791 0.09739100188016891 0  0.0259419996291399 0.1050340011715889 0  0.02605899982154369 0.1040849983692169 0  0.02690500020980835 0.1045660004019737 0  0.02505799941718578 0.1054629981517792 0  0.02515799924731255 0.1043109968304634 0  -0.00548599986359477 0.09875600039958954 0  -0.004575000144541264 0.09879499673843384 0  -0.005111000034958124 0.0996289998292923 0  -0.004191000014543533 0.09967300295829773 0  -0.01638500019907951 0.1003239974379539 0  -0.01677300035953522 0.09960299730300903 0  -0.01574200019240379 0.09969499707221985 0  -0.01729900017380714 0.1005399972200394 0  -0.01269599981606007 0.1062889993190765 0  -0.01289399992674589 0.1071949973702431 0  -0.01346100028604269 0.1064789965748787 0  -0.009283999912440777 0.09793899953365326 0  -0.008427999913692474 0.09792599827051163 0  -0.008957999758422375 0.09876800328493118 0  -0.01014200039207935 0.09794899821281433 0  -0.009611000306904316 0.09710799902677536 0  -0.01046799961477518 0.09711799770593643 0  -0.01259000040590763 0.1004329994320869 0  -0.01308299973607063 0.1012390032410622 0  -0.01348299998790026 0.1004270017147064 0  -0.01153500005602837 0.09879200160503387 0  -0.01241200044751167 0.09880100190639496 0  -0.01186999958008528 0.0979669988155365 0  0.01209199987351894 0.09519699960947037 0  0.01304499991238117 0.09521199762821198 0  0.0125320004299283 0.0960640013217926 0  0.007571999914944172 0.07877200096845627 0  0.008193000219762325 0.07793500274419785 0  0.008523000404238701 0.07878699898719788 0  -0.007199999876320362 0.01720999926328659 0  -0.006333999801427126 0.01745999976992607 0  -0.00811500009149313 0.0170729998499155 0  -0.009069000370800495 0.01692900061607361 0  -0.01291000004857779 0.01680999994277954 0  -0.01319499965757132 0.01789899915456772 0  -0.01381700020283461 0.0170070007443428 0  -0.0123300002887845 0.01771499961614609 0  -0.01237700041383505 0.01874100044369698 0  -0.01147099956870079 0.01790099963545799 0  -0.0119420001283288 0.02167600020766258 0  -0.01243199966847897 0.02072099968791008 0  -0.01144700031727552 0.02076300047338009 0  -0.01094199996441603 0.0199120007455349 0  -0.01037800032645464 0.02075999975204468 0  -0.01193599961698055 0.01976200006902218 0  -0.0129380002617836 0.02169599942862988 0  -0.0144250001758337 0.02092700079083443 0  -0.01494900044053793 0.0219080001115799 0  -0.01393899973481894 0.02178500033915043 0  -0.008801000192761421 0.01978700049221516 0  -0.01094000041484833 0.03069400042295456 0  -0.01145599968731403 0.0298250000923872 0  -0.01041300036013126 0.0297669991850853 0  -0.005156999919563532 0.02950900048017502 0  -0.005696000065654516 0.03042699955403805 0  -0.006211999803781509 0.02955600060522556 0  -0.007782000117003918 0.0198730006814003 0  -0.005127999931573868 0.01940600015223026 0  -0.006169000174850225 0.01920600049197674 0  -0.00532800005748868 0.01855899952352047 0  -0.005396999884396791 0.01773099973797798 0  -0.004360000137239695 0.01803000085055828 0  0.04390500113368034 0.09254299849271774 0  0.04496699944138527 0.09216400235891342 0  0.04430500045418739 0.09321200102567673 0  0.04323500022292137 0.0932760015130043 0  0.01748600043356419 0.05996499955654144 0  0.01856400072574615 0.05996999889612198 0  0.01803700067102909 0.06082199886441231 0  0.03218699991703033 0.0462229996919632 0  0.03272299841046333 0.04521200060844421 0  0.0331679992377758 0.04599099978804588 0  0.03408300131559372 0.05063199996948242 0  0.03504199907183647 0.05004100129008293 0  0.03533000126481056 0.0508119985461235 0  0.0335800014436245 0.0540350005030632 0  0.03262799978256226 0.054042998701334 0  0.03322700038552284 0.0531580001115799 0  0.0328500010073185 0.05230500176548958 0  0.03386899828910828 0.0522800013422966 0  0.032235998660326 0.05317400023341179 0  0.03164700046181679 0.05404800176620483 0  0.03181200101971626 0.0523420013487339 0  0.0313199982047081 0.05152300000190735 0  0.03076699934899807 0.05236199870705605 0  0.03025699965655804 0.0515270009636879 0  0.04130199924111366 0.09480699896812439 0  0.04031400009989738 0.09479399770498276 0  0.04083999991416931 0.09395699948072433 0  0.03987200185656548 0.09391199797391891 0  0.00952799990773201 0.02550099976360798 0  0.01033200044184923 0.02601799927651882 0  0.009510999545454979 0.02655700035393238 0  0.01039099972695112 0.02697600051760674 0  0.02971499972045422 0.05236899852752686 0  0.02547900006175041 0.05404499918222427 0  0.02494600042700768 0.05489400029182434 0  0.02441399917006493 0.05403099954128265 0  0.0260000005364418 0.05490599945187569 0  0.03206500038504601 0.0549129992723465 0  0.0209599994122982 0.03699399903416634 0  0.0200130008161068 0.03681699931621552 0  0.02048199996352196 0.03596299886703491 0  0.01494100037962198 0.04186299815773964 0  0.01393499970436096 0.04181500151753426 0  0.01445399969816208 0.04096699878573418 0  0.0134469997137785 0.04092000052332878 0  0.01292799971997738 0.04176799952983856 0  0.01295800041407347 0.04002099856734276 0  0.01396699994802475 0.040072001516819 0  0.01442200038582087 0.04271199926733971 0  -0.02759099937975407 0.0746539980173111 0  -0.02649799920618534 0.07492899894714355 0  -0.02747399918735027 0.07547099888324738 0  -0.02583000063896179 0.07413099706172943 0  -0.02544100023806095 0.07496199756860733 0  -0.0244159996509552 0.07499899715185165 0  -0.02488500066101551 0.07582300156354904 0  -0.02384800091385841 0.07417900115251541 0  -0.02341100014746189 0.07502199709415436 0  -0.02391899935901165 0.07584899663925171 0  -0.02781799994409084 0.07283499836921692 0  -0.01837499998509884 0.08704899996519089 0  -0.01937399990856647 0.08705200254917145 0  -0.01694200001657009 0.09624899923801422 0  -0.01785700023174286 0.09628599882125854 0  -0.01735099963843822 0.09543400257825851 0  -0.01826100051403046 0.09547500312328339 0  -0.01776699908077717 0.09461700171232224 0  -0.01591799966990948 0.09887599945068359 0  -0.01506400015205145 0.09886699914932251 0  -0.01480199955403805 0.09967999905347824 0  -0.0129770003259182 0.08953599631786346 0  -0.01116000022739172 0.08286699652671814 0  -0.01016599964350462 0.08286699652671814 0  -0.01061899960041046 0.08370400220155716 0  -0.01009800005704165 0.08454000204801559 0  -0.009637000039219856 0.08370400220155716 0  -0.01521600037813187 0.08114399760961533 0  -0.01573400013148785 0.08027900010347366 0  -0.01474899984896183 0.08028899878263474 0  -0.01376200001686811 0.08029700070619583 0  -0.01426700036972761 0.07943399995565414 0  -0.0180249996483326 0.08454599976539612 0  -0.01757499948143959 0.08369699865579605 0  -0.01856900006532669 0.08369100093841553 0  -0.01956400088965893 0.08368799835443497 0  -0.02445800043642521 0.07668600231409073 0  -0.02496399916708469 0.07924500107765198 0  -0.02453400008380413 0.08009599894285202 0  -0.02346899919211864 0.02501999959349632 0  -0.02383000031113625 0.02572000026702881 0  -0.02407700009644032 0.02641399949789047 0  -0.02434300072491169 0.02716200053691864 0  -0.02335000038146973 0.02696700021624565 0  -0.02003899961709976 0.02415799908339977 0  -0.01902000047266483 0.02410699985921383 0  -0.02106199972331524 0.02417699992656708 0  -0.02273200079798698 0.02359299920499325 0  -0.01744399964809418 0.01825799979269505 0  -0.0170620009303093 0.01902000047266483 0  -0.01826000027358532 0.0186500009149313 0  -0.01660599932074547 0.01785499975085258 0  -0.01846799999475479 0.02319700084626675 0  -0.01649199984967709 0.0229
[...]
<PointData  Scalars="pressure"> 
<DataArray  type="Float64"  Name="pressure"  format="ascii">4.5591255871196099e-02  4.5468840002150221e-02  4.5534916668751341e-02  4.5416199215906422e-02  4.5640306456728910e-02  4.5525270108465243e-02  4.5401696879753144e-02  4.5347738972826672e-02  4.5266303997281557e-02  4.5488403092514430e-02  4.5675683223391009e-02  4.5732858206983640e-02  4.5781386101019804e-02  4.5828669787268315e-02  3.6420415990124161e-02  3.6300948218571862e-02  3.6479347576553030e-02  3.7653239104880443e-02  3.7516045104803025e-02  3.7609165814026589e-02  3.7529379081842153e-02  2.5962717952489750e-02  2.6673958518085815e-02  2.6881132014095113e-02  3.4042883840132411e-02  3.3738183806300559e-02  3.3433586942785219e-02  3.4322844728779160e-02  4.4888514875396718e-02  4.4967572008862033e-02  4.4803187710090640e-02  4.4632655623592768e-02  4.4722269692810276e-02  4.4877942196494026e-02  4.5045948655240725e-02  4.5126955359200860e-02  4.4959905701075505e-02  4.5044762106376639e-02  4.4950803804777527e-02  4.5164509970823538e-02  4.5287953875865504e-02  4.5192465969754625e-02  4.5335957604513609e-02  4.5713612548256441e-02  4.5763801025933040e-02  4.5806557808215256e-02  4.5650189755913569e-02  4.5578992994568225e-02  4.5518109192294202e-02  3.9745655400236980e-02  3.8380788913177324e-02  3.9768042475384791e-02  4.8796677764422425e-02  4.9013911087748829e-02  4.9178359874631795e-02  4.8478413399884304e-02  4.8361762971895796e-02  4.8806828836996281e-02  4.8029896086982000e-02  4.7925298266827406e-02  2.5925930427729487e-02  2.6188689736522521e-02  2.6498178088327808e-02  2.6792312365459849e-02  2.6717398583020312e-02  2.6795545916142791e-02  2.6675270262268222e-02  2.6723204307455568e-02  2.6868616167030058e-02  2.6918797695470575e-02  2.6888758017992270e-02  2.5185626790899637e-02  2.5123392645422942e-02  2.5554650648461682e-02  2.5301317391648221e-02  2.4838597915499597e-02  2.5035673792596882e-02  2.6333937951789916e-02  2.6486607881415103e-02  2.6424414768505045e-02  2.5836896570279731e-02  2.6007261800649450e-02  2.5692021332029212e-02  3.0549881801795697e-02  3.1283956123060230e-02  3.1624878088890765e-02  1.4951928146584720e-03  1.0457065603416624e-03  7.3459070917633595e-04  4.5678694937558446e-02  4.5602247626582312e-02  4.5752731519274642e-02  4.5851860023832507e-02  4.6009931454937092e-02  4.5991625848723509e-02  4.6002894764011051e-02  4.5994897901900762e-02  4.5960179584942459e-02  4.5978827264998356e-02  4.5784385359908947e-02  4.5856503757771630e-02  4.5830915546893405e-02  4.5864732706855232e-02  4.5785974731828209e-02  4.5903934878851270e-02  4.5797802657617737e-02  4.5840849386046885e-02  4.5758260943141567e-02  4.5788007551777934e-02  4.5743029411430082e-02  4.4715311044291953e-02  4.4837182111342702e-02  4.4832024356238537e-02  4.4359731909038330e-02  4.4349675354312001e-02  4.4510597916927581e-02  4.5650439509650809e-02  4.5493832534309442e-02  4.5551979905976786e-02  4.5562613658693338e-02  4.5582262294577208e-02  4.5599938383379772e-02  4.6703828740071146e-02  4.6601835775304509e-02  4.7128485130379233e-02  4.7095646717990748e-02  2.4352714590622507e-02  2.4911726732144437e-02  2.3585738255217276e-02  3.7089586054438198e-02  3.7200793031996408e-02  3.7035083542004354e-02  3.5960608478098247e-02  3.5980911551098907e-02  3.5835993518104257e-02  3.4715763267676392e-02  3.4714928544312879e-02  3.5113557770478247e-02  3.5439768368973265e-02  3.5452358399828923e-02  3.5092478883756370e-02  3.4677186151747481e-02  3.5397245497867498e-02  3.5678504315879614e-02  3.5333391600356173e-02  3.5632173062579313e-02  4.7897116591541167e-02  4.7814464629295957e-02  4.7343544360383003e-02  4.7212577682725278e-02  4.2573192548544206e-02  4.2396117689014565e-02  4.2464542779612612e-02  4.2285244576917742e-02  3.5241882403989587e-02  3.3494310536687791e-02  3.2731697988938137e-02  3.3196497276263573e-02  3.3059736944183064e-02  3.4267396518252446e-02  3.9388444836705602e-02  3.9548497465370896e-02  3.9574780912091850e-02  3.9390680279133818e-02  3.9535179283792209e-02  3.9690473943080944e-02  3.9834243790882524e-02  3.9678355485200968e-02  4.0105537423427193e-02  3.9955487647780286e-02  3.9207470436967866e-02  3.7421062499451645e-02  3.7391978564320430e-02  3.7295443743855128e-02  3.7518618390473352e-02  3.7411594056933964e-02  3.7386875362188494e-02  3.7268307153785658e-02  3.7472353298600478e-02  3.7338817802322399e-02  3.7235352665138138e-02  3.7649145774263669e-02  3.2763686883919299e-02  3.3135631317025106e-02  2.7412352878275432e-02  2.7696313237153280e-02  2.7799731806469934e-02  2.8155454389132559e-02  2.8293384736929467e-02  2.6747640016011098e-02  2.6588716210144463e-02  2.6550219625427245e-02  2.7615081537730311e-02  3.0312651890413888e-02  2.9342757507587424e-02  2.9495999386150894e-02  2.8584980231188072e-02  2.8456755305245256e-02  3.4158916631083960e-02  3.4658757105589549e-02  3.4059922800955829e-02  3.3360832814215258e-02  3.3921205477530969e-02  3.4032954983633242e-02  3.4268002636073353e-02  3.4567681736861020e-02  3.4841848601648372e-02  3.7110510108972178e-02  3.6617275929842083e-02  3.6422232987321064e-02  4.4826781175344124e-02  4.4705531066132183e-02  4.4589264165977423e-02  4.4454866397240000e-02  4.4553131314840767e-02  4.5201673597249074e-02  4.5283552217959655e-02  4.5123230428828903e-02  4.5065047941909978e-02  4.5862756718006242e-02  4.5856644466705711e-02  4.5809998049758952e-02  4.5910428575111267e-02  4.5433055799440777e-02  4.5588977514884332e-02  4.5518552897712561e-02  4.5448122640879780e-02  4.4699726509281862e-02  4.4583638440748224e-02  4.4547443686421571e-02  4.5749501492699254e-02  4.5546942542811136e-02  4.5426013757476340e-02  4.5498631747276218e-02  4.5463318177705062e-02  4.5584621834149963e-02  4.5290333362742005e-02  4.5146389042717450e-02  4.5239197485980751e-02  4.8057659474147855e-02  4.8305500830112640e-02  4.8579999213998207e-02  4.5382143203510958e-02  4.6146985912598623e-02  4.5957835011346718e-02  4.0566079125366611e-02  4.0155632452635023e-02  3.9434280208618333e-02  3.8559983648707989e-02  4.9400978606215125e-02  4.9470275784904968e-02  4.9156714820636431e-02  4.9016770443284834e-02  4.9341474904123168e-02  4.9269953581938780e-02  4.7047274776119793e-02  4.6530073552619455e-02  4.6333780098025579e-02  4.5752371953391401e-02  4.8406702982893256e-02  4.8836689982963546e-02  4.8630533887519187e-02  4.8675430928160256e-02  4.8460257428431200e-02  4.8130650268112710e-02  4.8325409454672140e-02  4.6929160918144981e-02  4.6238511080820104e-02  4.6041757671083622e-02  4.7207660228126509e-02  4.7623642643188746e-02  4.7037194462490189e-02  4.7574290408253450e-02  2.5610580657059859e-02  2.5965260036893433e-02  2.5548340869001356e-02  2.5117844860350048e-02  2.5524316954485739e-02  2.8529173537107610e-02  2.7883008210885098e-02  2.8420686437519910e-02  2.7004124839012104e-02  2.6625570271637169e-02  2.6768235324739292e-02  2.6735312749149403e-02  2.6696687367321108e-02  2.6863654312679165e-02  2.6813747281236585e-02  2.6835508826002285e-02  2.6823731920645910e-02  2.6752561852208243e-02  2.6770961779069576e-02  2.2668360149711676e-02  2.2656827291875504e-02  2.2521980676591266e-02  2.3609484753143738e-02  2.3992699445751178e-02  2.4018628927841408e-02  2.5930898520593132e-02  2.4708944902578873e-02  2.5911267257440019e-02  2.6248756304390549e-02  2.6667317049655807e-02  2.6574933922061599e-02  2.6564626968004015e-02  2.6410467317719896e-02  2.6558270091960726e-02  2.5598255799684572e-02  2.5692897802189273e-02  2.5935391760814348e-02  2.5478969865808845e-02  2.6203720302631409e-02  2.6183522557157255e-02  2.6259670432347906e-02  2.6709910434220125e-02  2.6540885605008221e-02  2.6251207472808132e-02  2.6012780437159266e-02  2.9503576066050471e-02  2.9532789125870516e-02  2.9862804299493985e-02  2.9843040317151705e-02  2.8450153527940416e-02  2.8701630862556247e-02  2.8794285072072351e-02  2.8508569862605714e-02  2.6934540914362596e-02  2.7499195196072034e-02  2.7484034714361335e-02  2.6455867043366645e-02  2.6947026521914719e-02  2.6259277312895211e-02  2.6091183427293739e-02  2.5861444142985038e-02  2.6501177399443864e-02  2.6659244426186616e-02  4.1522752553499395e-02  4.2105532609035240e-02  4.2891800158290846e-02  4.0761396435220289e-02  4.0269012588157321e-02  3.0549685307160495e-02  2.9724299889984811e-02  3.0291545340030111e-02  3.0614631697116819e-02  3.0621158845969464e-02  3.1142441750019817e-02  3.0211228758500019e-02  3.0600249558976222e-02  3.0264917520898649e-02  3.2764875249374201e-02  3.4257765455293479e-02  3.3249311312861789e-02  3.1692671128700653e-02  3.2203816276685275e-02  3.3583737685579401e-02  8.4470602587353311e-04  1.5259618845188741e-03  9.7531584871916183e-04  1.5723110947628571e-03  4.1830530178929570e-04  4.5508747052233692e-03  4.2513324674968364e-03  3.3129422650968118e-03  2.5483285442847132e-02  2.6182708741654837e-02  2.6728964031858347e-02  2.9928278461626209e-02  2.9445637866885557e-02  3.0419774777433631e-02  2.9958721459537579e-02  3.3892412409075923e-02  3.3110089852734254e-02  3.3659399393313631e-02  4.4592879588588277e-02  4.4465188649951963e-02  4.4468798353779725e-02  2.8204044902017080e-02  2.8835810582629424e-02  2.9298029758427182e-02  2.5641093338429927e-02  2.6268337500309699e-02  2.4927120218246234e-02  2.3478333935419194e-02  2.4199428153403316e-02  3.3825046103005317e-02  3.2440002590109845e-02  3.3204363305480863e-02  3.1235780603841672e-02  2.5162580106964559e-02  2.4767594100022747e-02  2.5328643169742631e-02  2.5506248609182131e-02  2.5115744113255248e-02  2.5444759192459695e-02  2.5730825046237145e-02  2.6084861513807778e-02  2.5923191524381044e-02  2.6281544464902187e-02  2.6188353937845941e-02  2.6219208503794111e-02  2.6384422156758382e-02  3.1496200739643307e-02  3.1202107009271861e-02  3.2052180181136050e-02  3.1227982409413463e-02  3.0664374302161190e-02  3.1045694405397426e-02  2.8715202933430283e-02  2.7726318453701850e-02  2.6553686569767133e-02  2.5533237872176057e-02  3.1230693959348570e-02  3.0600395935391721e-02  2.6775567606065882e-02  2.8715458681389205e-02  3.0116732700511385e-02  3.2337097949429863e-02  3.4240783932035918e-02  3.4371450767083617e-02  3.3463444039526787e-02  3.3265700409232879e-02  3.1848609343719664e-02  6.4336862543497991e-04  2.0832128638847980e-04  1.2877581706106783e-03  1.3859819401486340e-03  2.1653571951727110e-03  4.0901209421713436e-04  1.1388539230953940e-03  7.5339440371683525e-04  4.5742293151367769e-04  4.5880806448048761e-02  4.5954222017616245e-02  4.5984617643449535e-02  4.5954259492493509e-02  4.5915791592937349e-02  4.6005165068637353e-02  4.5986814975148574e-02  4.5873605735384647e-02  4.5915922193069961e-02  4.5953455858557000e-02  4.5938207338507127e-02  4.5877937211449379e-02  4.4815817452066635e-02  4.4957295526975700e-02  4.4930138813563225e-02  4.4770758801298959e-02  4.4937691855014665e-02  4.5029679456424873e-02  4.4883118313345988e-02  4.4950730039003461e-02  4.4796535446444116e-02  4.4840684836266194e-02  4.4200709081587471e-02  4.4669906396570286e-02  4.4609400971308909e-02  4.4804260280006544e-02  4.4561495652060711e-02  4.4414790276110692e-02  4.5635099387282954e-02  4.5552244314524516e-02  3.7739217264063964e-02  3.7752099211354632e-02  3.7988495134036598e-02  3.7918682467714945e-02  3.7907839212546361e-02  3.9697235122409982e-02  4.0207092549011794e-02  4.0169893512569929e-02  3.9512411635169484e-02  3.9229126371751202e-02  3.9567608656381793e-02  2.7905261476791083e-02  2.7351129183405667e-02  2.7599874065534838e-02  3.7414854061392583e-02  2.9078265664956745e-02  2.9411735235433438e-02  2.9684825360536682e-02  4.6190448642240894e-02  4.4490936596345565e-02  4.4729508007218644e-02  4.5196113513538264e-02  4.5507394262437377e-02  3.3537402992072252e-02  3.3872522753673584e-02  3.3446343994993986e-02  3.3969666087751087e-02  3.4088584322741922e-02  3.3528321068516095e-02  3.3911261730013097e-02  3.0273715630875282e-02  3.0848004958629882e-02  3.0300018756681972e-02  3.1391786978396716e-02  3.1389363426358903e-02  3.0850219942360351e-02  3.3339600889152637e-02  3.3848951744496300e-02  3.3426032511098804e-02  3.3043079864142663e-02  3.2523156490855173e-02  3.2511394880431192e-02  3.2993405609103313e-02  3.2134524087406524e-02  3.2320590950667819e-02  3.1683229042026501e-02  3.0980075827613130e-02  3.1192562006908977e-02  3.0500619487113079e-02  3.1759316207275096e-02  3.1808913155170843e-02  3.1324372426519614e-02  3.0253403019974572e-02  3.0914454348212037e-02  1.6349249372391364e-02  1.4822819243879834e-02  1.5405660740687485e-02  2.5524086916246531e-02  2.6098452203400315e-02  2.6720215659215188e-02  2.6088351385173573e-02  1.5592877993905789e-02  1.4527715976685861e-02  1.6231144012031344e-02  1.3965897712128174e-02  1.5136451897667810e-02  1.6735001184879385e-02  3.2077830338199262e-02  3.2901211261621398e-02  3.1792874584047663e-02  3.1240695766437645e-02  3.2367495343149914e-02  2.9239463335806230e-02  2.8842494714029679e-02  2.7972338414996994e-02  3.0921702576877257e-02  3.0068851685985894e-02  1.6676840920570684e-02  1.5160340646589325e-02  1.6351212841422234e-02  1.5608724435722081e-02  1.7159617778326051e-02  1.8190706959728461e-02  1.3406964547392569e-02  1.4764891244726137e-02  1.3434356289783095e-02  2.1312481745123128e-02  2.2942722532162309e-02  2.1214377357293930e-02  1.3296286658908918e-02  1.4369445836887422e-02  3.6862555722919507e-02  3.4679016174456290e-02  3.5041463722570498e-02  3.4650659517584378e-02  3.4294277273794638e-02  3.5565113273780938e-02  3.5249188522917502e-02  3.5413068407502642e-02  3.6080200763753512e-02  3.5731100642954164e-02  3.5088061816324852e-02  3.6473252607242573e-02  3.6205438998804906e-02  3.6231993907216299e-02  3.5962492106680490e-02  3.5559115221171042e-02  3.5120359277884559e-02  3.5398447005543662e-02  3.4803493875018798e-02  3.5236513273866489e-02  3.6726967403539514e-02  3.6682233041304774e-02  3.5024279859817584e-02  3.5705973958438379e-02  4.6696509918938423e-02  4.2110125459619736e-02  4.2204833359246699e-02  4.2040769465987907e-02  4.1661563951017735e-02  4.1749904638230584e-02  4.1833172672378620e-02  4.1931217291536822e-02  4.3201554019041105e-02  4.3207704770928640e-02  4.3398826725218900e-02  4.3404481682907108e-02  4.3207993998800508e-02  4.3011482614604829e-02  4.3785448596377251e-02  4.3758951138970346e-02  4.3948128573559626e-02  4.3587091111225849e-02  4.3912361354533663e-02  4.3741482298804382e-02  4.4091120814640457e-02  4.4140080228253505e-02  3.2268740588316636e-02  3.1801366127413237e-02  3.1406965678388868e-02  3.3637610102127020e-02  3.3361737569450350e-02  3.4024184256010448e-02  3.4410819055880948e-02  3.4610682058053718e-02  3.3773696584683204e-02  3.3766732100626577e-02  3.3208004581181214e-02  3.3635459630227231e-02  2.4796306828893975e-02  2.4099591465155036e-02  2.5021162514447359e-02  2.8987948401362096e-02  2.9435563429848034e-02  2.9767314750277243e-02  3.9623656820437003e-02  3.9750336129632968e-02  3.9575396929779433e-02  3.9423340470460658e-02  3.9526108334150538e-02  3.9320311013966117e-02  3.9677624679883512e-02  3.9707381681728646e-02  3.9516754730876701e-02  3.8147370886192605e-02  3.8018815497761246e-02  3.8103799255038852e-02  3.8229887047222876e-02  3.8263415577196723e-02  3.8285629230012885e-02  3.8383030625067427e-02  3.8442315395735865e-02  3.8611498634915406e-02  3.8703860817925650e-02  3.8748556750882623e-02  3.8833092538886956e-02  3.8828002924986185e-02  3.8708714702196001e-02  3.8679765891503494e-02  3.8826943143428161e-02  4.1189419577278674e-02  4.0971668608530840e-02  4.1135964100808442e-02  4.0907871196219053e-02  3.7428389861054762e-02  3.7368941601925526e-02  3.6940827939805902e-02  3.7512594685920012e-02  3.7889233691937488e-02  3.9867350900386629e-02  3.9533369293654530e-02  3.9247500793516521e-02  3.8206806516207517e-02  3.7798296665145052e-02  3.8110871761545088e-02  3.8435712260286345e-02  3.7991085130422403e-02  3.8312786477557377e-02  3.8707718319832538e-02  3.9065968048032876e-02  3.8929299733374716e-02  3.8838516812806138e-02  3.9347401633594598e-02  3.7067308663677703e-02  3.7062780127592038e-02  3.6869966843808617e-02  2.4283930735857603e-02  2.5322948501229355e-02  2.3878921714018005e-02  3.7097615390112325e-02  3.6953829181977427e-02  3.7284192106787059e-02  3.7619903855975807e-02  2.9312469200253218e-02  2.9512279341955151e-02  2.8690900225665707e-02  2.9147582458653204e-02  2.9869980876326464e-02  3.3519064274620723e-02  3.4133899814916380e-02  3.0877123533860504e-02  3.0548813743017184e-02  3.1148903693402851e-02  3.3070810005997812e-02  3.0612389567246701e-02  3.0099405188504763e-02  3.0352497266912130e-02  3.1992557451788028e-02  3.2447344760181594e-02  2.6816271124874346e-02  2.6889133174931110e-02  2.6999930333475142e-02  2.7075578698240239e-02  2.7180967685516186e-02  2.7344201698153596e-02  2.7500256155091551e-02  2.7940833249011067e-02  2.7671117365055280e-02  2.8152058969396661e-02  2.7858819793396009e-02  2.8374119498850017e-02  2.5915904891949948e-02  2.6878182094096193e-02  2.3275853546299689e-02  2.3757335366290395e-02  2.3848211743817932e-02  2.3246248652015945e-02  2.8597203930096477e-02  2.7640976876416642e-02  2.7632609168994585e-02  2.4537388664721715e-02  2.5558768845521964e-02  2.5215446484946870e-02  2.5758045019647922e-02  2.4887013385284533e-02  2.6807037760753862e-02  2.4263844331703137e-02  2.3609851293779214e-02  2.4132501349608648e-02  2.6159255577120528e-02  2.6611179171095078e-02  2.8226422428113882e-02  3.4627783516711697e-02  3.4040802127701754e-02  3.4573733257395378e-02  3.5116660858089926e-02  3.5005989201469002e-02  2.4994172266508893e-02  2.6318476003196783e-02  3.5502307654481965e-02  3.5562869784874988e-02  3.5345352983927006e-02  3.6320948792267396e-02  3.6436326006570596e-02  3.6150287400356904e-02  3.7051605889836504e-02  3.6986769254347428e-02  3.6884010367634480e-02  3.3643058136192852e-02  3.5102455618802604e-02  3.4822411476436457e-02  3.5303572405523252e-02  3.6600807691561134e-02  3.6656415005950412e-02  3.6218867897356927e-02  3.5984200222882068e-02  3.6219734259548240e-02  4.4374645994483077e-02  4.4308446686956458e-02  4.4185329905912452e-02  4.4264376491950058e-02  4.4159376392123827e-02  4.5694146748598265e-02  4.5737169969282260e-02  4.5802394090887683e-02  4.5867769931199155e-02  4.5698295298487422e-02  4.5731879679834810e-02  4.5651457862715669e-02  4.3166850909189806e-02  4.3244147061672802e-02  4.2975532868812970e-02  4.3417659654738684e-02  4.3584602937834720e-02  4.3740135451799222e-02  4.3809986254689279e-02  4.4543284489385888e-02  4.4640959540775377e-02  4.4429314790734808e-02  4.4323029978452590e-02  4.4202063477247033e-02  4.4092621418250717e-02  4.4443323846129854e-02  4.4313486693817100e-02  4.3962116301103228e-02  4.3708746741288960e-02  4.3850477023936338e-02  4.2704480371596000e-02  4.2910289182925214e-02  4.3108257580752735e-02  4.4781219279896353e-02  4.4865505155486957e-02  4.5370416324515869e-02  4.0248540909587148e-02  4.0045607464396150e-02  4.0093805302913191e-02  4.0276213628491618e-02  4.4486063584041995e-02  4.4373594902512845e-02  4.4515577327381664e-02  4.4404769340932716e-02  4.4305638250899199e-02  4.4625147152659007e-02  4.4706451009534340e-02  4.3827302545812512e-02  4.3561187053703154e-02  4.3406555907009217e-02  4.3242318115345429e-02  4.3102566225797813e-02  4.4189252890034079e-02  4.4075379350915690e-02  4.3952055991068516e-02  4.3820391877325414e-02  4.5119321437024400e-02  4.5285158779001154e-02  4.5192651995987064e-02  4.5093389713429272e-02  4.5254139935613488e-02  4.5425957384919516e-02  4.5328824230942033e-02  4.5444361001108061e-02  4.5076551286255262e-02  4.5042231215166366e-02  4.5087564127157545e-02  4.5326111127449949e-02  4.5538358035104115e-02  4.5073706329327737e-02  4.5169771565613269e-02  4.5203756533994430e-02  4.5100336755335875e-02  4.5692085100537724e-02  4.5718612444369672e-02  4.5655500092941316e-02  4.5327700433190544e-02  4.5356955258132749e-02  4.5207097740935127e-02  4.7859576606495625e-02  4.787777065