<?xml version="1.0"?>
<VTKFile type="UnstructuredGrid"  version="0.1"  >
<UnstructuredGrid>
<Piece  NumberOfPoints="6340" NumberOfCells="12376">
<Points>
<DataArray  type="Float64"  NumberOfComponents="3"  format="ascii">-0.01955999992787838 0.0207310002297163 0  -0.02034400030970573 0.02143199928104877 0  -0.02054999954998493 0.02043000049889088 0  -0.02119999937713146 0.0212590005248785 0  -0.01977499946951866 0.01980699971318245 0  -0.01942100003361702 0.02161299996078014 0  -0.02000599913299084 0.02239399962127209 0  -0.01952500082552433 0.02319700084626675 0  -0.02056200057268143 0.02321700006723404 0  -0.0189449992030859 0.02233199961483479 0  -0.007860999554395676 0.01813199929893017 0  -0.008550000376999378 0.01896700076758862 0  -0.008876999840140343 0.01802599988877773 0  -0.009575000032782555 0.01889899931848049 0  -0.02600900083780289 0.07845000177621841 0  -0.02694500051438808 0.07898399978876114 0  -0.02712499909102917 0.07820399850606918 0  -0.02656999975442886 0.07186900079250336 0  -0.02719799987971783 0.0726659968495369 0  -0.02740000002086163 0.07178100198507309 0  -0.0281399991363287 0.07230000197887421 0  -0.01204000040888786 0.08900199830532074 0  -0.01293899957090616 0.08897200226783752 0  -0.01241800002753735 0.0882050022482872 0  -0.01978199928998947 0.08391299843788147 0  -0.01876999996602535 0.083965003490448 0  -0.01922499947249889 0.08475500345230103 0  -0.01932800002396107 0.08311799913644791 0  -0.02250299975275993 0.02494500018656254 0  -0.02154600061476231 0.02493399940431118 0  -0.0219969991594553 0.02581300027668476 0  -0.02240199968218803 0.02669399976730347 0  -0.02297299914062023 0.0258370004594326 0  -0.02103099972009659 0.02580600045621395 0  -0.0205559991300106 0.02491899952292442 0  -0.01954999938607216 0.02489900030195713 0  -0.02004100009799004 0.02578200027346611 0  -0.02204599976539612 0.02404499985277653 0  -0.02309500053524971 0.02412199974060059 0  -0.02239999920129776 0.02278999984264374 0  -0.02181700058281422 0.02204700000584126 0  -0.02155799977481365 0.02314200066030025 0  -0.02095000073313713 0.02229500003159046 0  -0.01603399962186813 0.02196799963712692 0  -0.01655399985611439 0.02108700014650822 0  -0.01549500040709972 0.02108200080692768 0  -0.01702000014483929 0.0220710001885891 0  -0.01802700012922287 0.02211000025272369 0  -0.01752999983727932 0.02298600040376186 0  0.0396450012922287 0.08192099630832672 0  0.03945500031113625 0.08105199784040451 0  0.04065499827265739 0.0813089981675148 0  0.04105500131845474 0.09286999702453613 0  0.04176900163292885 0.09322299808263779 0  0.04075099900364876 0.09373100101947784 0  0.02436400018632412 0.1019150018692017 0  0.02454200014472008 0.1010169982910156 0  0.02536600083112717 0.1014140024781227 0  0.02344300039112568 0.1023750007152557 0  0.02361699938774109 0.1012869998812675 0  -0.0068660001270473 0.0969420000910759 0  -0.005991999991238117 0.09703999757766724 0  -0.006574000231921673 0.09779299795627594 0  -0.005688999779522419 0.09790000319480896 0  -0.01730499975383282 0.09809199720621109 0  -0.01763699948787689 0.09742199629545212 0  -0.01663899980485439 0.09752500057220459 0  -0.0182070005685091 0.09827499836683273 0  -0.01432100031524897 0.1036769971251488 0  -0.01459100004285574 0.1045129969716072 0  -0.01505099982023239 0.1038289964199066 0  -0.01035199966281652 0.09602600336074829 0  -0.009552000090479851 0.09603799879550934 0  -0.01012600027024746 0.09680400043725967 0  -0.01115700043737888 0.09601800143718719 0  -0.01058300025761127 0.09525299817323685 0  -0.01138699986040592 0.09524600207805634 0  -0.01367800030857325 0.09826000034809113 0  -0.01421300042420626 0.09899300336837769 0  -0.01452300045639277 0.09823700040578842 0  -0.01253999955952168 0.09676799923181534 0  -0.01337399985641241 0.09675999730825424 0  -0.01279199961572886 0.096001997590065 0  0.01100299973040819 0.09357099980115891 0  0.01196399983018637 0.09352400153875351 0  0.0113909998908639 0.0943560004234314 0  0.007482000160962343 0.07844500243663788 0  0.008011999540030956 0.07760799676179886 0  0.008441999554634094 0.07839799672365189 0  -0.007559999823570251 0.01726000010967255 0  -0.006736000068485737 0.01749200001358986 0  -0.008438999764621258 0.01712900027632713 0  -0.009356999769806862 0.01699200086295605 0  -0.01305999979376793 0.01686999946832657 0  -0.0133260004222393 0.01795200072228909 0  -0.01394100021570921 0.01705699972808361 0  -0.01248900033533573 0.01777499914169312 0  -0.01252199988812208 0.01879899948835373 0  -0.0116569995880127 0.01796399988234043 0  -0.01206899993121624 0.02172699943184853 0  -0.01255500037223101 0.0207700002938509 0  -0.01159899961203337 0.02081999927759171 0  -0.01112200040370226 0.01997300051152706 0  -0.01056700013577938 0.02082099951803684 0  -0.01208299957215786 0.01981900073587894 0  -0.01303800009191036 0.02173699997365475 0  -0.01449200045317411 0.0209560003131628 0  -0.01500700041651726 0.02191999927163124 0  -0.01401100028306246 0.02181600034236908 0  -0.009060000069439411 0.01984900049865246 0  -0.01100200042128563 0.03071999922394753 0  -0.01151200011372566 0.02984900027513504 0  -0.01049800030887127 0.02980099990963936 0  -0.005429999902844429 0.02955099940299988 0  -0.005934000015258789 0.03047399967908859 0  -0.006440999917685986 0.02960499934852123 0  -0.008081999607384205 0.01992800086736679 0  -0.005563999991863966 0.01941799931228161 0  -0.006552000064402819 0.01923999935388565 0  -0.005766999907791615 0.01857299916446209 0  -0.00584599981084466 0.01774300076067448 0  -0.004860000219196081 0.01802000030875206 0  0.04306099936366081 0.089028000831604 0  0.04390700161457062 0.08859100192785263 0  0.04357799887657166 0.08963699638843536 0  0.04257600009441376 0.08976899832487106 0  0.01641900092363358 0.05920799821615219 0  0.01744800060987473 0.05913899838924408 0  0.01696800068020821 0.06001999974250793 0  0.03007400035858154 0.0445760004222393 0  0.03055699914693832 0.04353800043463707 0  0.0310050006955862 0.04427799955010414 0  0.03202499821782112 0.04879999905824661 0  0.03292600065469742 0.04814599826931953 0  0.03322700038552284 0.0488860011100769 0  0.03164900094270706 0.05219300091266632 0  0.03073799982666969 0.05227100104093552 0  0.03128499910235405 0.05135399848222733 0  0.03089600056409836 0.05054000020027161 0  0.03187200054526329 0.05044100061058998 0  0.03033499978482723 0.05144299939274788 0  0.02979799918830395 0.05234900116920471 0  0.02990199998021126 0.05065299943089485 0  0.02940399944782257 0.049880001693964 0  0.02890099957585335 0.05074900016188622 0  0.02838600054383278 0.04995999857783318 0  0.04052599892020226 0.09133099764585495 0  0.03953000158071518 0.09138199687004089 0  0.04011400043964386 0.09056299924850464 0  0.03913899883627892 0.09058199822902679 0  0.008310999721288681 0.02487399987876415 0  0.009074999950826168 0.02535099908709526 0  0.008313000202178955 0.0259380005300045 0  0.009146999567747116 0.02631199918687344 0  0.02789199911057949 0.05083100125193596 0  0.02388699911534786 0.05278899893164635 0  0.02340199984610081 0.05366799980401993 0  0.02286799997091293 0.05285099893808365 0  0.02441100031137466 0.05360500141978264 0  0.03022499941289425 0.05317100137472153 0  0.01925900019705296 0.03595200181007385 0  0.01836699992418289 0.03580199927091599 0  0.01879299990832806 0.0349229983985424 0  0.01369099970906973 0.04109599813818932 0  0.01274400018155575 0.04109000042080879 0  0.01321799959987402 0.0402120016515255 0  0.0122699998319149 0.04020600020885468 0  0.01179699972271919 0.04108300060033798 0  0.01179299969226122 0.03931999951601028 0  0.01274400018155575 0.03932899981737137 0  0.01321799959987402 0.04197400063276291 0  -0.02802200056612492 0.07315599918365479 0  -0.02691599912941456 0.07347399741411209 0  -0.02791300043463707 0.0739390030503273 0  -0.02622799947857857 0.07274799793958664 0  -0.02584400027990341 0.07355800271034241 0  -0.02480500005185604 0.07364500313997269 0  -0.02529199980199337 0.0744049996137619 0  -0.02421800047159195 0.07289399951696396 0  -0.02378600090742111 0.07371699810028076 0  -0.02431200072169304 0.07447800040245056 0  -0.02822699956595898 0.07140599936246872 0  -0.01867000013589859 0.08558700233697891 0  -0.01967900060117245 0.08554200083017349 0  -0.01759799942374229 0.09431800246238708 0  -0.01849599927663803 0.09432700276374817 0  -0.01795200072228909 0.0935479998588562 0  -0.01884599961340427 0.09356100112199783 0  -0.01831500045955181 0.09277399629354477 0  -0.0167590007185936 0.09676799923181534 0  -0.0159280002117157 0.09677500277757645 0  -0.01573199965059757 0.09752699732780457 0  -0.01334299985319376 0.08817200362682343 0  -0.01136100012809038 0.08189799636602402 0  -0.01035299990326166 0.08195000141859055 0  -0.01081399992108345 0.08273500204086304 0  -0.01030000019818544 0.08355999737977982 0  -0.009825999848544598 0.08278000354766846 0  -0.01549999974668026 0.08000200241804123 0  -0.016032999381423 0.07913599908351898 0  -0.01503199990838766 0.079196996986866 0  -0.01403000019490719 0.07925599813461304 0  -0.01454600039869547 0.07839500159025192 0  -0.01831699907779694 0.0831729993224144 0  -0.0178689993917942 0.08236800134181976 0  -0.01888000033795834 0.08230900019407272 0  -0.01989299990236759 0.08225200325250626 0  -0.02486800029873848 0.07524800300598145 0  -0.02539700083434582 0.07767199724912643 0  -0.02496300078928471 0.07851299643516541 0  -0.02346399985253811 0.02482699975371361 0  -0.02381999976933002 0.02551000006496906 0  -0.02406499907374382 0.0261829998344183 0  -0.02432800084352493 0.02690899930894375 0  -0.02333999983966351 0.02675499953329563 0  -0.02005399949848652 0.02405299991369247 0  -0.01903799921274185 0.02402099967002869 0  -0.02107400074601173 0.02405400015413761 0  -0.02273700013756752 0.02343600057065487 0  -0.017493000254035 0.01824700087308884 0  -0.01711099967360497 0.01901100017130375 0  -0.01830000057816505 0.01861999928951263 0  -0.01666500046849251 0.01786400005221367 0  -0.01849300041794777 0.02312899939715862 0  -0.016529999673366
[...]
<PointData  Scalars="pressure"> 
<DataArray  type="Float64"  Name="pressure"  format="ascii">9.0318842085553401e-03  8.9885774770831137e-03  9.0250340354036292e-03  8.9895408493840048e-03  9.0653208111277847e-03  9.0079317802708100e-03  8.9716919299063259e-03  8.9651941010357381e-03  8.9460469247922298e-03  8.9995832633252212e-03  9.0591855619879640e-03  9.0918721598068700e-03  9.0874786507381886e-03  9.1292477906145947e-03  1.7382621972285964e-02  1.7374532214943089e-02  1.7372761843695947e-02  1.6531320099491542e-02  1.6643418726724868e-02  1.6456588605198559e-02  1.6528776384852822e-02  1.5474288831004213e-02  1.5700841550933368e-02  1.5553418819965803e-02  1.7276612444543763e-02  1.7200640075382991e-02  1.7134190137519260e-02  1.7341298652371981e-02  8.9438255156462365e-03  8.9369002124600160e-03  8.9539750354330379e-03  8.9846797749697886e-03  8.9698274885875971e-03  8.9489038564489250e-03  8.9389093410833856e-03  8.9477804608419087e-03  8.9492712258502864e-03  8.9333855923219921e-03  8.9753382379933154e-03  8.9720530924558006e-03  8.9687685858989633e-03  8.9365435293963912e-03  8.9554986238058187e-03  9.1016295309662293e-03  9.1178206558191581e-03  9.1502253818067023e-03  9.0667990287027038e-03  9.0332173291661662e-03  9.0218028433960533e-03  6.1961544994488442e-04  4.4097842512816126e-04  9.9504421035697386e-04  1.7664902524340206e-03  1.5215965330501917e-03  1.8268908226975909e-03  1.0450353653345415e-02  9.0556688034984720e-03  9.3007191097642071e-03  1.1746135179740675e-02  9.9581699019686970e-03  1.8309647889068883e-02  1.8461665127000277e-02  1.8950363968333713e-02  1.9138651074192468e-02  1.7979229035127681e-02  1.7777130706497567e-02  1.7891516551323660e-02  1.7892673969351933e-02  2.0906027607819389e-02  2.1138043839980733e-02  2.0626678342171023e-02  1.7549967812728818e-02  1.7570772022725178e-02  1.7988821609653611e-02  1.7536976345659164e-02  1.7129394537492282e-02  1.7148069933586484e-02  1.8440026615584713e-02  1.8696182254162235e-02  1.8346788996531152e-02  1.7860219317723903e-02  1.7821675283335427e-02  1.7517110256106867e-02  1.3598679063404881e-02  1.3134667843350562e-02  1.3540729487741033e-02  3.2639300681092990e-03  2.3078160028358356e-03  2.8855269914778423e-03  9.0365304858929449e-03  9.0360527758442076e-03  9.0529162306044325e-03  9.0989160417376432e-03  9.2785234430550478e-03  9.2647671267180112e-03  9.2850206974440241e-03  9.2490854180009782e-03  9.2381863705929511e-03  9.2199989341961892e-03  9.1947233864543773e-03  9.2088327804454341e-03  9.2046899517149866e-03  9.1997609331280622e-03  9.1963144468892311e-03  9.2199317841062389e-03  9.1825623844725701e-03  9.1797119939371653e-03  9.1337120936307511e-03  9.1616365119528559e-03  9.1441657171778060e-03  9.5729447072604827e-03  9.4532400651546437e-03  9.5532144500478713e-03  1.0061789821186926e-02  1.0047723731038082e-02  9.9597013876132172e-03  9.1407493905961389e-03  9.2014939647353453e-03  9.1205226508137630e-03  9.1223706816310549e-03  9.0711819631781390e-03  9.1507563348108105e-03  1.2954513546046111e-03  1.2085786267258620e-03  1.2432765093191142e-03  1.3961812776542380e-03  8.3200271259120974e-03  8.3412498386890958e-03  8.0257432487302882e-03  1.3248093136978403e-02  1.3283467964174896e-02  1.3322949432475865e-02  1.3024121280707415e-02  1.3025274185722094e-02  1.2893196792035825e-02  1.1971818401331175e-02  1.1935400372659718e-02  1.2280527612980523e-02  1.2537589670260064e-02  1.2574442935777246e-02  1.2225881273819197e-02  1.1863979591924496e-02  1.2457299333678187e-02  1.2635087092389571e-02  1.2338548129429444e-02  1.2493373801774357e-02  1.8601844973152562e-03  2.0464524300859372e-03  1.8695793453978361e-03  2.0172839934941844e-03  1.0411435344779698e-02  1.0467134446618412e-02  1.0490605571449183e-02  1.0543385153506897e-02  1.2178145740539940e-02  1.0752101802243674e-02  1.0385233735203878e-02  1.0536100937402874e-02  1.0591629723256561e-02  1.1553451788944288e-02  1.1873266907618914e-02  1.1773075321207228e-02  1.1766760508588037e-02  1.1192373391270258e-02  1.1074029140639222e-02  1.1136943576273393e-02  1.1013185584951169e-02  1.0962495814373831e-02  1.0948447744594483e-02  1.1077398455755796e-02  1.1123894650247178e-02  1.6693495852953998e-02  1.6770395307634384e-02  1.6778291985173038e-02  1.6700754549030992e-02  1.6855703665705279e-02  1.6913919160471677e-02  1.7009131192240533e-02  1.6811372069192761e-02  1.6971708475134163e-02  1.7069894653981350e-02  1.6332516898479983e-02  1.6978727074633562e-02  1.7070511413221485e-02  1.7028832526135830e-02  1.7019825541829597e-02  1.6908466780194788e-02  1.6913009151981625e-02  1.6821006557484131e-02  1.7653068107482989e-02  1.7705642097282953e-02  1.7966919271379792e-02  1.5798622413609804e-02  1.5259454426184246e-02  1.4759036944909518e-02  1.5101101948245224e-02  1.4923154909316335e-02  1.4613637574405952e-02  1.6912079521968399e-02  1.7015131725852485e-02  1.6672008751044118e-02  1.6249677263208522e-02  1.6332812981302239e-02  1.7251727903822060e-02  1.7286627433274748e-02  1.7393967436261985e-02  1.7454206059125503e-02  1.7152464197514948e-02  1.7381463105508772e-02  1.7450298006571611e-02  8.9936840577027402e-03  9.0232273713650862e-03  9.0350341069173716e-03  9.0642432146051631e-03  9.0094672040456486e-03  8.9447033118890476e-03  8.9619376883164886e-03  8.9342354520046286e-03  8.9671404457436869e-03  9.1628450582395861e-03  9.1719000712549952e-03  9.1388298802618680e-03  9.1980435947020059e-03  8.9909480740936638e-03  9.0536150651913151e-03  9.0439176600800794e-03  9.0135852767021414e-03  9.4810180682190805e-03  9.6095425537590096e-03  9.5248645873900334e-03  9.2035171348144110e-03  9.2713309104009468e-03  9.3495775655840357e-03  9.2729256048363976e-03  9.3353642796049491e-03  9.2592970562035970e-03  9.4469065025755486e-03  9.5538294077648842e-03  9.4484219330639788e-03  1.1624281949655149e-03  8.8767301566295667e-04  1.0486379701834948e-03  1.6086667993369165e-03  1.6547973210571903e-03  1.7846902075053823e-03  1.9221213463675702e-03  2.1965546030617671e-03  1.9364765098414316e-03  8.1534083333263804e-04  2.3704620190384130e-03  2.6147653016507220e-03  2.4774381588098283e-03  2.2666178251931597e-03  2.1844930498319823e-03  2.0045187083415836e-03  2.1492064295780032e-03  1.9704393814612281e-03  2.1000154719482168e-03  1.9164064286522043e-03  1.8264748281339466e-03  2.0163714164923270e-03  2.1929711378054313e-03  2.3920986944394240e-03  2.5158861402233752e-03  2.3640276237208505e-03  2.0256267903637462e-03  1.4588225100477189e-02  1.6105759326916141e-02  1.4473603285376772e-02  1.0275483098901861e-02  1.1398504933442195e-02  1.1860720786769301e-02  1.3121862107095286e-02  1.8112970740747358e-02  1.8536244916667725e-02  1.8043901174559448e-02  1.7600648638769072e-02  1.7796957797653491e-02  2.0256621549861242e-02  1.9347922485577068e-02  1.9619323498640033e-02  1.9608860703952007e-02  1.8149865161432754e-02  1.9946039786573822e-02  1.9474488081494799e-02  1.9788668801979371e-02  2.0214014110410145e-02  1.9966670928807086e-02  2.0324470656620075e-02  2.0148372771115062e-02  1.9901465259757757e-02  2.0064629042242862e-02  1.4957077476799339e-02  1.4714855039748561e-02  1.4624923021076906e-02  1.5646224035103469e-02  1.6033231564701447e-02  1.5773249632377931e-02  1.7509785736433168e-02  1.7114511337543280e-02  1.8446384247685847e-02  1.8927547132631832e-02  1.9495453203883923e-02  1.9077539219023467e-02  1.9220355701642579e-02  1.8933810374706567e-02  1.9350277115639403e-02  1.7944701433063769e-02  1.7902045310573825e-02  1.8300798014767038e-02  1.7525259533441289e-02  1.8630328225116035e-02  1.8723884720607317e-02  1.8533845492895485e-02  1.9546180689352842e-02  1.8579638876830919e-02  1.8097268627420064e-02  1.8230826927930936e-02  2.5028437678736200e-02  2.4274202761012414e-02  2.4379021486143550e-02  2.3588966955151426e-02  2.3032180286278237e-02  2.2662538789650195e-02  2.3534481866467769e-02  2.3879102314745871e-02  3.1844043775315002e-02  3.1449078630673165e-02  3.2189564637778660e-02  3.1453276634192687e-02  3.1252323999358858e-02  3.0404620930489665e-02  3.1047474279452869e-02  3.0596438438749804e-02  3.0857531465099192e-02  3.0238960213915728e-02  2.2871939649614075e-02  2.0931210778746691e-02  2.1128780281196059e-02  2.2745470637935084e-02  2.4523431907494189e-02  3.2765287238347061e-02  3.2824031946067388e-02  3.2034138853112751e-02  2.6899679276809349e-02  2.6060277376423559e-02  2.6005553092039949e-02  2.3619726787736391e-02  2.3567796646912609e-02  2.4414577304252442e-02  1.0790184282760230e-02  1.0502903697232925e-02  1.1043897866525067e-02  1.1292402197928996e-02  1.1564205024627731e-02  1.1288511359822218e-02  1.4663036699248081e-03  1.1292428136363093e-03  8.2064297570756694e-04  1.8223460900231758e-03  1.1479156269938462e-03  2.4543139512206360e-04  8.6180201374299985e-05  3.8392527426526438e-05  8.3691023625624000e-03  8.6174235678706732e-03  8.6532739964327726e-03  9.1520385752576518e-03  9.0447207107979231e-03  9.4062025232859378e-03  9.2874432406634851e-03  1.0612214648604210e-02  1.0331913189275316e-02  1.0480264079401124e-02  9.6940406673024504e-03  9.7408181436498924e-03  9.8168830601137666e-03  8.4342264174968040e-03  8.5379959769639364e-03  8.8064218431394056e-03  7.9115928004098376e-03  8.2673414978233252e-03  7.8721337884655636e-03  7.4460295884167171e-03  7.8406511880455797e-03  1.0265199342670037e-02  9.7408703468836351e-03  1.0015815786867908e-02  1.0230155300103752e-02  5.2818159672684030e-03  5.2585590417066758e-03  5.6697627583787314e-03  5.2899622416896211e-03  4.8585035644761222e-03  4.8438190829281670e-03  5.2540918705262602e-03  5.7124656218532329e-03  5.2288562573460538e-03  4.5877744015433925e-03  4.6555696401106971e-03  5.1212084365254758e-03  4.1110818494881438e-03  1.5221141483917226e-02  1.4571443068723888e-02  1.4713168168232205e-02  1.9098121115367565e-02  1.8443439519053646e-02  1.8025961270624221e-02  1.1930711539119780e-02  1.2354474689196662e-02  1.2011893802759101e-02  1.2399378307476890e-02  1.2056848808645604e-02  1.1772997098672869e-02  1.2753414239321123e-02  1.2655095966311758e-02  1.3249965364746465e-02  1.3036946768017230e-02  1.2933416152082867e-02  1.3682194948016941e-02  1.3553501487475143e-02  1.2953987783077336e-02  1.4065742286877271e-02  3.5986454148557875e-03  2.5511786592877454e-03  3.9644670483495069e-03  4.7630351849988536e-03  5.1414300245119357e-03  1.9589617563749583e-03  3.5830487271137712e-03  3.8187846449438097e-03  2.7407858302715619e-03  9.1985785219890655e-03  9.2322980693241158e-03  9.2623953304065941e-03  9.2524147015475532e-03  9.2280620568117727e-03  9.2447420339310700e-03  9.1965471912759666e-03  9.1754356346710544e-03  9.1724927396320474e-03  9.1816817098875035e-03  9.1544310837452895e-03  9.1374357100334029e-03  9.3595472583184423e-03  9.3411543116033412e-03  9.2537808953705517e-03  9.2792061653146629e-03  9.5447930121042718e-03  9.5451817146527708e-03  9.6476616592686311e-03  9.6528384208173501e-03  9.7554381508605445e-03  9.7625162785049020e-03  1.0137936557113710e-02  9.8882584507605786e-03  9.9282900179942513e-03  9.8060598615768019e-03  9.9587452565000241e-03  1.0038470620109680e-02  9.0851109422147025e-03  9.1664166195499289e-03  1.6297764027128972e-02  1.6218871541086661e-02  1.5886504321728834e-02  1.6050502368219453e-02  1.5896440793743010e-02  1.0173043202957616e-02  1.0172032783631085e-02  1.0161539238070068e-02  1.0075356194208889e-02  1.0105151584932522e-02  1.0065700459020020e-02  7.7456508628124931e-03  7.3993505297992824e-03  7.4498873497956157e-03  6.1733223256592968e-04  8.3895020739347820e-03  8.6418420524722681e-03  8.8016479438166352e-03  1.2691307260792204e-03  1.1582212320560212e-03  1.1942456419448348e-03  1.2426001051834426e-03  1.2550108441894004e-03  1.1043870107486552e-02  1.1236579185753770e-02  1.0898611941918428e-02  1.1418642541120905e-02  1.1436154230733953e-02  1.1021788811744607e-02  1.1323108553196289e-02  8.8556363855877406e-03  9.2455260261867372e-03  8.9477752226065771e-03  9.5952416760907537e-03  9.5472297878446584e-03  9.3186478492210886e-03  1.0834128687421143e-02  1.1229768640544074e-02  1.0905097782237489e-02  1.0647114997195433e-02  1.0303750208934207e-02  1.0243669419103676e-02  1.0582194269452713e-02  1.0005948333244613e-02  1.0099740013504572e-02  9.6924876843542326e-03  9.2900352512249700e-03  9.3829213606832634e-03  8.9902220094375887e-03  1.0027526008620124e-02  9.8781515089111996e-03  9.6408340214242313e-03  9.0285118272040582e-03  9.4585856739625024e-03  4.8373721724194246e-03  4.2170929154147245e-03  4.6927331445061546e-03  7.8820905638302685e-03  8.1888970918822038e-03  8.2495838621785816e-03  8.4126395765560767e-03  5.2434188801495831e-03  4.6987282847595416e-03  5.2924677685449069e-03  4.6408307963949225e-03  5.2301730129285786e-03  5.8140055440830700e-03  9.9619933558455463e-03  1.0102607224099266e-02  1.0002290515930101e-02  9.8152755718620421e-03  9.9334771661733767e-03  9.4414899361764705e-03  9.4593685936937739e-03  9.2017726339130267e-03  9.8457072976659357e-03  9.6541205250182567e-03  6.0354155652313328e-03  5.4190130030968260e-03  5.9559799863913871e-03  5.5091291653650036e-03  6.1124504296145993e-03  6.6048523996731371e-03  4.6527289790386931e-03  5.2751961393983663e-03  4.6974877332949753e-03  3.6275106180468706e-03  4.0787038748547316e-03  4.1351702151716007e-03  3.5703227208970078e-03  3.7713691471161371e-03  1.3265977319317373e-02  1.1972549378975034e-02  1.2305910388918703e-02  1.1997291057546329e-02  1.1632535911256216e-02  1.2643949312673805e-02  1.2409894488271397e-02  1.2576821133344945e-02  1.3074601495987413e-02  1.2796437358811044e-02  1.2297011203358917e-02  1.3109413860585426e-02  1.3044173563731498e-02  1.2957361741783167e-02  1.2871600728839538e-02  1.2311496171444024e-02  1.1977607774538764e-02  1.1405284813990068e-02  1.1099808620133433e-02  1.1193139637081805e-02  1.3126878715314767e-02  1.3221344668351159e-02  1.2128083930534071e-02  1.2731660320474802e-02  1.8340382473617245e-03  1.0642628649783620e-02  1.0547186551769328e-02  1.0628561204257675e-02  1.0767052837486246e-02  1.0781609665327877e-02  1.0695215851965992e-02  1.0688309163559787e-02  1.0264305211647177e-02  1.0287048474043263e-02  1.0262614529292505e-02  1.0228842906342225e-02  1.0242823249422873e-02  1.0283112974124674e-02  1.0224828821776007e-02  1.0266249440915771e-02  1.0214068684915718e-02  1.0266746191374861e-02  1.0250445392661969e-02  1.0299695192155737e-02  1.0183573521498766e-02  1.0144061760346098e-02  1.0209723943340826e-02  1.0011435569659211e-02  9.8393733309100756e-03  1.1010140378065955e-02  1.0802350532084823e-02  1.1210968926164348e-02  1.1374173791526641e-02  1.1604585727076320e-02  1.0984602991901037e-02  1.1156048423604736e-02  1.0739666112967616e-02  1.1049315386771327e-02  6.1827722916117846e-03  6.0658998139018153e-03  6.4891569270085726e-03  8.2031092333637347e-03  8.5033699448810538e-03  8.5985607033207609e-03  1.1702821290325516e-02  1.1600168400629253e-02  1.1702304857211424e-02  1.1824095761404210e-02  1.1793400483693140e-02  1.1929993370553071e-02  1.1652289450393764e-02  1.1673013343079821e-02  1.1762747046242302e-02  1.2857587825290874e-02  1.2947522111352517e-02  1.2823048326149486e-02  1.2721904682738476e-02  1.2755984635655443e-02  1.2629218388978500e-02  1.2525400783504601e-02  1.2540820403143808e-02  1.2445319089275965e-02  1.2327428796433948e-02  1.2340650497197465e-02  1.2277038419240827e-02  1.2262176508021232e-02  1.2359293904617371e-02  1.2346478369281912e-02  1.2260504395156465e-02  1.0635371116888337e-02  1.0663866247782223e-02  1.0551193716152499e-02  1.0592488687424330e-02  1.1208791262744554e-02  1.1303675116877299e-02  1.1151215058970744e-02  1.1128254456631816e-02  1.1248527483721540e-02  1.1567544900896651e-02  1.1266953978975328e-02  1.1317836662928710e-02  1.1366842578113018e-02  1.1345396631255507e-02  1.1083875206876485e-02  1.1170842048793542e-02  1.1161461476017345e-02  1.1265518480685563e-02  1.1260381054790877e-02  1.1238177502812557e-02  1.1354867698564593e-02  1.1157744656311242e-02  1.1021989913663446e-02  1.7054985889071800e-02  1.6877513470321574e-02  1.7000016113478858e-02  7.1467038048167878e-03  7.4655757146127062e-03  6.7687567734255180e-03  1.7213165301233839e-02  1.7278052203859126e-02  1.6963135982721689e-02  1.6577672497558642e-02  1.6530026234570640e-02  1.6461172170216823e-02  1.6394484723892811e-02  1.6603213931556903e-02  1.6642110058118036e-02  1.6759862830070579e-02  1.7062458231898184e-02  1.6863010158020227e-02  1.6784092329874118e-02  1.6804731397590839e-02  1.7040796890567315e-02  1.6713909539191107e-02  1.6600486396950751e-02  1.6733699106580398e-02  1.6837436095706263e-02  1.6939173089162485e-02  1.7685853304855031e-02  1.7575856115737382e-02  1.7418659730063252e-02  1.7361234741874992e-02  1.7316800573317012e-02  1.7171606257408118e-02  1.7133134866209779e-02  1.6996266356492668e-02  1.7004901087592717e-02  1.6887152071072126e-02  1.6779754586538034e-02  1.6712203922655003e-02  1.5673371549826280e-02  1.7568682381832908e-02  1.4263850153627040e-02  1.4408767895680491e-02  1.4234196120160515e-02  1.4069599468972169e-02  1.5173475239655086e-02  1.4782278725495628e-02  1.5003491532934590e-02  1.3339324226316493e-02  1.3668959490078469e-02  1.3236304561809603e-02  1.4059161773948659e-02  1.3742269383690473e-02  1.4662456410925728e-02  1.4621666597336484e-02  1.4617256876171721e-02  1.4812794480171195e-02  1.5308911906142926e-02  1.4102419716632494e-02  1.4186152654131534e-02  1.7282261402736129e-02  1.7136629035566522e-02  1.6757518049242449e-02  1.7069516241677546e-02  1.6792688125809502e-02  7.1153782933778553e-03  7.8108195822575235e-03  1.7096780851431601e-02  1.7306208739315685e-02  1.6805506281916894e-02  1.7571711890149853e-02  1.7503584401840251e-02  1.7540045639570259e-02  1.7270232973230177e-02  1.7309735118335303e-02  1.7390194830821278e-02  1.7137275542543750e-02  1.7505190443086936e-02  1.7433258943893946e-02  1.7534215573928293e-02  1.7344356515459583e-02  1.7288077188776001e-02  1.7422358766769952e-02  1.7462220297651997e-02  1.7471864341463174e-02  9.0568036760687518e-03  9.1004798183758756e-03  9.1209246426334142e-03  9.0821112541698557e-03  9.1485922670055952e-03  9.0768525880362758e-03  9.1067081115665319e-03  9.1343486514328734e-03  9.1798386834536540e-03  9.0805523330159538e-03  9.0938483381333528e-03  9.0869839678580332e-03  9.4424246513087340e-03  9.4219285127941886e-03  9.5033211357321741e-03  9.3597046698339903e-03  9.3014217853647392e-03  9.2480792028420168e-03  9.2255247030624751e-03  9.0690284135495972e-03  9.0763567977924509e-03  9.1240414841301139e-03  9.1216375988499195e-03  9.1839914791285969e-03  9.1842247463176686e-03  9.0701378917765439e-03  9.1935788892164201e-03  9.2515666267832843e-03  9.3252629896291503e-03  9.2541912116078998e-03  9.5828715422135100e-03  9.5241058902208707e-03  9.4652796759065252e-03  8.9670377794207508e-03  8.9669457705187916e-03  9.0104183778116423e-03  1.0056420484099469e-02  1.0096105503472997e-02  1.0152039306051897e-02  1.0115525508874852e-02  9.4433894250657222e-03  9.5797051740181376e-03  9.2592546256783474e-03  9.3722586363493531e-03  9.3166013026749622e-03  9.1667311049336390e-03  9.2134070257581871e-03  9.3294896308436792e-03  9.4027111480968137e-03  9.4878835817294206e-03  9.5779160872917907e-03  9.5537921131803455e-03  9.4340163702062961e-03  9.3821781263695864e-03  9.3478832062872316e-03  9.4501336159247100e-03  9.0031715438318831e-03  9.0143443142982477e-03  9.0287763418898173e-03  9.0585538577026455e-03  9.0645114361962500e-03  9.2667031269093210e-03  9.2560434576577470e-03  9.1917296657679122e-03  9.2442202168636113e-03  9.1669445819118484e-03  9.3369679164002801e-03  9.1765584674022779e-03  9.2071886317594796e-03  9.4398689392954510e-03  9.4436143179540237e-03  9.3410670243115439e-03  9.5505766713414285e-03  9.2128346802461299e-03  9.1895536499521785e-03  9.2228709806098964e-03  9.4346208045457472e-03  9.4101814208659394e-03  9.5242767074591277e-03  9.7752499494183184e-04  6.648235107