<?xml version="1.0"?>
<VTKFile type="UnstructuredGrid"  version="0.1"  >
<UnstructuredGrid>
<Piece  NumberOfPoints="6340" NumberOfCells="12376">
<Points>
<DataArray  type="Float64"  NumberOfComponents="3"  format="ascii">-0.01940900087356567 0.02083400078117847 0  -0.02001900039613247 0.02147199958562851 0  -0.02026000060141087 0.02050000056624413 0  -0.02074100077152252 0.02120300009846687 0  -0.01965099945664406 0.01991800032556057 0  -0.01923500001430511 0.02170499972999096 0  -0.0196710005402565 0.02242200076580048 0  -0.01921599917113781 0.02324000000953674 0  -0.0200750008225441 0.02312999963760376 0  -0.01878800056874752 0.02242900058627129 0  -0.009112999774515629 0.01768900081515312 0  -0.009713999927043915 0.01860200054943562 0  -0.01004999969154596 0.01766500063240528 0  -0.0106570003554225 0.01861800067126751 0  -0.02421299926936626 0.07253699749708176 0  -0.02510000020265579 0.07285500317811966 0  -0.02525899931788445 0.07209400087594986 0  -0.02462399937212467 0.06625399738550186 0  -0.02523200027644634 0.06688500195741653 0  -0.02540300041437149 0.06601300090551376 0  -0.02611000090837479 0.0663599967956543 0  -0.01194600015878677 0.08462099730968475 0  -0.01279500033706427 0.08443500101566315 0  -0.01224400009959936 0.08384999632835388 0  -0.01862300001084805 0.07870099693536758 0  -0.01768999919295311 0.0789330005645752 0  -0.01818099990487099 0.07955300062894821 0  -0.01813800074160099 0.07807400077581406 0  -0.02157000079751015 0.02443699911236763 0  -0.02077200077474117 0.02461499907076359 0  -0.02108900062739849 0.02532400004565716 0  -0.02136700041592121 0.02604500018060207 0  -0.02190100029110909 0.02515400014817715 0  -0.02028400078415871 0.02550799958407879 0  -0.01995100080966949 0.0247380007058382 0  -0.01911799982190132 0.02484400011599064 0  -0.01946399919688702 0.02561699971556664 0  -0.02125000022351742 0.0237089991569519 0  -0.02212000079452991 0.02357199974358082 0  -0.02163000032305717 0.02250000089406967 0  -0.02119800075888634 0.02187000028789043 0  -0.02090699970722198 0.02293699979782104 0  -0.02046100050210953 0.02221100032329559 0  -0.01634100079536438 0.02212399989366531 0  -0.01683899946510792 0.02125000022351742 0  -0.01592000015079975 0.02121900022029877 0  -0.01718899980187416 0.02224799990653992 0  -0.01803199946880341 0.02224699966609478 0  -0.01755799911916256 0.02312600053846836 0  0.04136300086975098 0.07671599835157394 0  0.04101900011301041 0.07589399814605713 0  0.04229199886322021 0.07597199827432632 0  0.044429000467062 0.08654399961233139 0  0.04520900174975395 0.08676599711179733 0  0.04411200061440468 0.0872730016708374 0  0.02645000070333481 0.09543400257825851 0  0.02662999927997589 0.09468699991703033 0  0.0275299996137619 0.09493499994277954 0  0.02545800060033798 0.09589199721813202 0  0.02562999911606312 0.09499099850654602 0  -0.00697400001809001 0.09263700246810913 0  -0.006107999943196774 0.09287399798631668 0  -0.006692999973893166 0.09343799948692322 0  -0.005814999807626009 0.0936800017952919 0  -0.01740000024437904 0.09166499972343445 0  -0.01770300045609474 0.09101700037717819 0  -0.01673400029540062 0.09128600358963013 0  -0.0182850006967783 0.09166400134563446 0  -0.01446700002998114 0.09720399975776672 0  -0.01474099978804588 0.09790100157260895 0  -0.01520099956542253 0.09719199687242508 0  -0.01046300027519464 0.09112899750471115 0  -0.009658999741077423 0.09130000323057175 0  -0.01023699995130301 0.09187199920415878 0  -0.01127099990844727 0.09096600115299225 0  -0.01069200038909912 0.09039399772882462 0  -0.01150000002235174 0.0902319997549057 0  -0.01380799990147352 0.09247899800539017 0  -0.01434700004756451 0.09302899986505508 0  -0.01465099956840277 0.09229899942874908 0  -0.01266099978238344 0.09136799722909927 0  -0.01349200028926134 0.09120500087738037 0  -0.01290499977767467 0.09064099937677383 0  0.01182399969547987 0.08985800296068192 0  0.01286699995398521 0.08973199874162674 0  0.01225799974054098 0.09046199917793274 0  0.007776999846100807 0.0778610035777092 0  0.008232000283896923 0.07705599814653397 0  0.008817999623715878 0.07773400098085403 0  -0.008870000019669533 0.01676999963819981 0  -0.008109999820590019 0.01693199947476387 0  -0.009681999683380127 0.01670899987220764 0  -0.01052999962121248 0.0166459996253252 0  -0.01393999997526407 0.01682000048458576 0  -0.01413299981504679 0.01793700084090233 0  -0.01472599990665913 0.0170620009303093 0  -0.01338099967688322 0.01770099997520447 0  -0.01337100006639957 0.01875199936330318 0  -0.01260800007730722 0.01782800070941448 0  -0.0128370001912117 0.0217059999704361 0  -0.01331700012087822 0.02076099999248981 0  -0.01244600024074316 0.02074800059199333 0  -0.01203900016844273 0.01984200067818165 0  -0.01149700023233891 0.02066699974238873 0  -0.01293000020086765 0.01976200006902218 0  -0.0137090003117919 0.02177299931645393 0  -0.01505399961024523 0.02106500044465065 0  -0.01545100007206202 0.02205000072717667 0  -0.01458400022238493 0.02191100083291531 0  -0.01014799997210503 0.01954899914562702 0  -0.01148600038141012 0.03079699911177158 0  -0.01198399998247623 0.02994100004434586 0  -0.0110719995573163 0.02983199991285801 0  -0.006444000173360109 0.02918799966573715 0  -0.006870999932289124 0.03017700091004372 0  -0.007369999773800373 0.02932900004088879 0  -0.009247000329196453 0.01954800076782703 0  -0.006965999957174063 0.018800999969244 0  -0.007872999645769596 0.01871000044047832 0  -0.007184000220149755 0.01795100048184395 0  -0.007288999855518341 0.01710600033402443 0  -0.006380000151693821 0.01730000041425228 0  0.04637499898672104 0.08312100172042847 0  0.04710200056433678 0.08257099986076355 0  0.04705699905753136 0.08364199846982956 0  0.04603400081396103 0.08387999981641769 0  0.01445899996906519 0.05762099847197533 0  0.01541300024837255 0.05738500133156776 0  0.01502299960702658 0.05832400172948837 0  0.02627399936318398 0.04104600101709366 0  0.02665100060403347 0.03995899856090546 0  0.0271380003541708 0.04058599844574928 0  0.02858399972319603 0.04472799971699715 0  0.02940399944782257 0.04393099993467331 0  0.02979299984872341 0.04458700120449066 0  0.02862600050866604 0.0480789989233017 0  0.02771699987351894 0.0483039990067482 0  0.02815200015902519 0.04732099920511246 0  0.027666000649333 0.0466109998524189 0  0.02862799912691116 0.04633399844169617 0  0.02721600048243999 0.04758299887180328 0  0.02678800001740456 0.04855399951338768 0  0.02668900042772293 0.04690400138497353 0  0.02611400000751019 0.04625599831342697 0  0.02570999972522259 0.04718400165438652 0  0.02512699924409389 0.04652699828147888 0  0.04383200034499168 0.08533900231122971 0  0.04275200143456459 0.08547099679708481 0  0.04337299987673759 0.08475100249052048 0  0.04231499880552292 0.08485600352287292 0  0.005522000137716532 0.02285600081086159 0  0.006213000044226646 0.0232939999550581 0  0.005570999812334776 0.02395600080490112 0  0.006318999920040369 0.02428100071847439 0  0.02473299950361252 0.04745399951934814 0  0.02103699930012226 0.05008799955248833 0  0.02064500004053116 0.05102299898862839 0  0.02006999962031841 0.05033800005912781 0  0.02160999923944473 0.05077200010418892 0  0.02731899917125702 0.0492749996483326 0  0.01583000086247921 0.03373700007796288 0  0.01501299999654293 0.03364500030875206 0  0.01535599958151579 0.032710000872612 0  0.01103900000452995 0.03937200084328651 0  0.01018700003623962 0.03940600156784058 0  0.01057100016623735 0.03847499936819077 0  0.009717999957501888 0.03850999847054482 0  0.009333999827504158 0.03943999856710434 0  0.00925000011920929 0.03761199861764908 0  0.01010300032794476 0.03757999837398529 0  0.01065600011497736 0.04030299931764603 0  -0.02601500041782856 0.06718900054693222 0  -0.02498199976980686 0.06769999861717224 0  -0.02592900022864342 0.06794799864292145 0  -0.02432099916040897 0.06714700162410736 0  -0.02397600002586842 0.06798399984836578 0  -0.02300000004470348 0.06826400011777878 0  -0.02347400039434433 0.06888700276613235 0  -0.02243399992585182 0.06766899675130844 0  -0.02204399928450584 0.06852799654006958 0  -0.02255300059914589 0.06914299726486206 0  -0.02617299929261208 0.06550099700689316 0  -0.0177449993789196 0.08039599657058716 0  -0.01866899989545345 0.08017099648714066 0  -0.0175390001386404 0.08829899877309799 0  -0.01839499920606613 0.08815000206232071 0  -0.01783300004899502 0.08756300061941147 0  -0.01868500001728535 0.08741799741983414 0  -0.01812800019979477 0.08681900054216385 0  -0.01682700030505657 0.09059900045394897 0  -0.01601799950003624 0.09075299650430679 0  -0.01583999954164028 0.09145200252532959 0  -0.01310199964791536 0.08365199714899063 0  -0.01064599957317114 0.0784590020775795 0  -0.009716999717056751 0.07869099825620651 0  -0.01021999958902597 0.07930500060319901 0  -0.009836999699473381 0.08013100177049637 0  -0.009317000396549702 0.07952500134706497 0  -0.01438499987125397 0.07597599923610687 0  -0.01485299970954657 0.07508199661970139 0  -0.01391499955207109 0.07532700151205063 0  -0.01297799963504076 0.07557299733161926 0  -0.01343599986284971 0.07468099892139435 0  -0.01720199920237064 0.07831099629402161 0  -0.01672999933362007 0.07767099887132645 0  -0.01767100021243095 0.07742899656295776 0  -0.01861299946904182 0.07718800008296967 0  -0.02309099957346916 0.0697610005736351 0  -0.02362699992954731 0.07192900031805038 0  -0.02323099970817566 0.07279500365257263 0  -0.02237899973988533 0.02414000034332275 0  -0.02263000048696995 0.02469000034034252 0  -0.02279799990355968 0.0252240002155304 0  -0.02297800034284592 0.025798000395298 0  -0.02214800007641315 0.02590500004589558 0  -0.01959599927067757 0.02398299984633923 0  -0.0187550000846386 0.02407800033688545 0  -0.02044099941849709 0.02385699935257435 0  -0.02186799980700016 0.02301999926567078 0  -0.01781000010669231 0.01841400004923344 0  -0.01743699982762337 0.01917400024831295 0  -0.01848999969661236 0.01881000027060509 0  -0.0171119999140501 0.0180089995265007 0  -0.01835599914193153 0.02322899922728539 0  -0
[...]
<PointData  Scalars="pressure"> 
<DataArray  type="Float64"  Name="pressure"  format="ascii">3.6952303649638550e-02  3.6974861642377253e-02  3.6949090079404986e-02  3.6970509688824163e-02  3.6928512893479766e-02  3.6969136010968628e-02  3.7000397225796310e-02  3.7027264269734461e-02  3.7035787261999319e-02  3.6985266831624196e-02  3.7406984572205620e-02  3.7295488503158218e-02  3.7380998380463729e-02  3.7230775552829665e-02  2.4922910627286205e-02  2.4806414896999137e-02  2.5194847190917420e-02  2.7864760574348623e-02  2.7722235328551087e-02  2.7861067682552962e-02  2.7791226732679121e-02  1.6106976017688124e-02  1.6669621783466732e-02  1.6244648346184623e-02  2.0229325050826339e-02  1.9735038105100827e-02  1.9841001794749208e-02  2.0145047552089613e-02  3.7106132406459040e-02  3.7110906314789888e-02  3.7141261224245083e-02  3.7165136824626931e-02  3.7132724927012979e-02  3.7147694235875363e-02  3.7110949389717485e-02  3.7116594817510951e-02  3.7161911720557252e-02  3.7074628852456645e-02  3.7070303275571370e-02  3.7030473911574088e-02  3.7000904699667908e-02  3.7040091683304563e-02  3.7005652084832211e-02  3.6956053520526666e-02  3.6925536217045855e-02  3.6927357975120437e-02  3.6961781002576993e-02  3.6968355784939747e-02  3.7008295120447107e-02  1.2122054381999491e-02  1.0589948654484966e-02  1.2246919902216501e-02  2.3473761028591007e-02  2.3704320522485230e-02  2.4286273134768929e-02  2.7845519284972961e-02  2.6941752676680399e-02  2.8549255087769815e-02  2.7084396747254415e-02  2.6018730969918448e-02  1.5187525993879500e-02  1.4795610400898027e-02  1.5452995660443808e-02  1.5133716830396979e-02  1.8848487106847427e-02  1.8948971905741518e-02  1.8789348190869980e-02  1.8841954045891254e-02  1.8552325808023077e-02  1.8484219237960377e-02  1.8525016532759796e-02  1.6515690628890037e-02  1.6157904723731860e-02  1.6621544757840414e-02  1.6879855033194308e-02  1.6435802901860384e-02  1.6825911588961493e-02  1.8087388154247461e-02  1.8301749452501345e-02  1.8312866605225315e-02  1.7552098769507290e-02  1.7838182158963375e-02  1.7535635129995800e-02  2.1870296940054434e-03  2.6070886809660444e-03  3.0889613797876019e-03  6.5308027506180352e-03  7.2289000471636999e-03  6.6489951102826645e-03  3.7503569482145269e-02  3.7533838166118390e-02  3.7469093702195831e-02  3.7372987249587208e-02  3.7023561567531754e-02  3.7032144844725244e-02  3.6974101304140375e-02  3.7073684106889652e-02  3.7033834701392626e-02  3.7154651575594735e-02  3.7025257525988578e-02  3.6988312568788040e-02  3.7029020101507007e-02  3.7065627404570957e-02  3.7081726301481939e-02  3.7019540835285358e-02  3.6991644073936590e-02  3.6935930997628694e-02  3.6960563717860689e-02  3.6970736108284240e-02  3.7192117744439424e-02  3.8443633275118037e-02  3.8209970907747443e-02  3.8242496842321894e-02  3.8106447199998339e-02  3.8307352797525049e-02  3.8162046642601366e-02  3.7242361397529261e-02  3.7251096115067897e-02  3.7318224164333551e-02  3.7322867261804366e-02  3.7509558685153738e-02  3.7362812220774200e-02  2.0772575516432010e-02  2.0598600735781441e-02  2.1303343687778229e-02  2.1227777436213128e-02  1.4126163045653966e-02  1.5548175501273548e-02  1.4280731546387733e-02  3.8351124034394821e-02  3.8208030764507198e-02  3.8449576488785400e-02  3.9398360302804261e-02  3.9327751935464145e-02  3.9595932548264531e-02  3.9174500052340008e-02  3.8648581033741206e-02  3.9083810610487699e-02  3.8954926429239860e-02  3.9364528639860431e-02  3.8545330500337205e-02  3.7979305848482088e-02  3.8381704624320410e-02  3.8174869692671656e-02  3.7672956128218228e-02  3.7462960627105468e-02  2.2147555239156427e-02  2.2143181053598977e-02  2.1465623121758180e-02  2.1387619361216643e-02  3.8062502666916506e-02  3.8055091286816688e-02  3.8054901629375651e-02  3.8052943745475271e-02  3.6816279472773654e-02  3.1065324799052343e-02  2.9709696364130934e-02  2.9648802774344021e-02  3.1161312465959677e-02  3.8058763441834342e-02  3.6716365598893914e-02  3.6754482668300226e-02  3.6868101006044290e-02  3.2722625497421963e-02  3.2320847730900278e-02  3.3522727783276147e-02  3.3185479087480582e-02  3.1892100963747533e-02  3.4018889052501541e-02  3.4282587636932475e-02  3.1409672400014507e-02  2.7633126251849931e-02  2.7519740344476309e-02  2.7395311159668173e-02  2.7548215238493007e-02  2.7129272732172843e-02  2.6730187193354685e-02  2.6558365785580899e-02  2.6827531590691452e-02  2.6272149928877195e-02  2.6154438003698037e-02  2.8182550906016686e-02  1.9490516186793819e-02  1.9921393400874492e-02  1.8914673355535566e-02  1.9148817038830108e-02  1.9006361499172401e-02  1.9231317849717721e-02  1.9108073064680826e-02  1.8797039318871563e-02  1.8577701050111885e-02  1.8552000168001175e-02  1.6801159470794146e-02  1.4790527332302645e-02  1.4065360403039660e-02  1.4521141547730789e-02  1.4234352640101706e-02  1.3771385483316108e-02  1.7947347241030049e-02  1.8454705262531887e-02  1.7540709486108311e-02  1.6697490384706425e-02  1.7110045326375209e-02  1.9598756667264454e-02  1.9443101246207461e-02  2.0055110285112535e-02  2.0632374481205109e-02  2.6011980467496077e-02  2.5042511589076201e-02  2.4464922416939851e-02  3.7094603457000525e-02  3.7113569142059724e-02  3.7127776656092064e-02  3.7134335022694753e-02  3.7151305349492833e-02  3.7068793623048275e-02  3.7069641343450747e-02  3.7073595566601940e-02  3.7051355732758598e-02  3.6880370202418772e-02  3.6909446172777437e-02  3.6892923355961289e-02  3.6892541537280069e-02  3.7018438232564801e-02  3.7006982146463793e-02  3.7071405979291455e-02  3.7066789852820983e-02  3.8387609723764683e-02  3.8633508004249861e-02  3.8551538885859514e-02  3.7069190409841669e-02  3.7223480305885140e-02  3.7332172381133448e-02  3.7283453616572718e-02  3.7283312168196733e-02  3.7191905503785920e-02  3.7454788450107371e-02  3.7584652090256652e-02  3.7552724685809946e-02  2.2247089782920209e-02  2.2504608151163258e-02  2.2851226736104978e-02  1.9352841536842889e-02  2.0198278583328119e-02  2.0002535378922250e-02  1.4800022702511278e-02  1.4752231756821322e-02  1.3809812671862870e-02  1.1044340779227375e-02  2.5625455518788011e-02  2.6430339018569698e-02  2.5193030413526996e-02  2.4468642031369635e-02  2.5177529745367980e-02  2.4729498353173073e-02  2.1305098362077207e-02  2.0618701513642795e-02  2.0497650260795020e-02  1.9835294332594372e-02  2.2863064484767607e-02  2.3761881547363452e-02  2.3583278001969587e-02  2.3918309694825911e-02  2.3789459002907992e-02  2.2962385407130283e-02  2.2868921839700688e-02  2.5211579910864673e-02  2.4231457901179913e-02  2.3399318820249683e-02  2.4407399557119031e-02  2.5749023981630745e-02  2.4534482405678095e-02  2.6187024695824391e-02  1.5926535737818680e-02  1.6429508822618517e-02  1.6289646921941667e-02  1.5765869606175747e-02  1.4505085944696260e-02  1.3620161945761428e-02  1.3074288586715770e-02  1.2622400007408696e-02  1.5756441174923596e-02  1.8794616340560469e-02  1.8520099692108397e-02  1.8585138337112561e-02  1.8620603495945687e-02  1.8576684454642691e-02  1.8637460719458539e-02  1.8438339448006089e-02  1.8559888011437195e-02  1.8391939586426272e-02  1.8268394452725836e-02  1.2861839373772910e-02  1.2813035726163944e-02  1.2116691253621682e-02  1.5313307918992866e-02  1.5863224100026510e-02  1.5867783113557077e-02  1.7842094596944080e-02  1.6038091462581696e-02  1.6739375111331046e-02  1.6881898670003694e-02  1.8357003165763355e-02  1.8315914816448578e-02  1.8156594791539561e-02  1.7922581501063930e-02  1.7981330073685176e-02  1.6945902006969330e-02  1.7261213670673320e-02  1.7316635828003371e-02  1.7217159658614811e-02  1.7638395392958726e-02  1.7392762266529565e-02  1.7867538992631441e-02  1.8637510791353812e-02  1.8482407571474780e-02  1.8094775308408213e-02  1.7588514310010604e-02  1.6884558769310342e-02  1.6518958426569308e-02  1.6124794140649563e-02  1.5671871955347919e-02  1.6971657924613956e-02  1.6435867751927645e-02  1.6873724453238634e-02  1.7360439198728306e-02  2.0223756532006101e-02  1.9920072587580967e-02  1.9964003563283386e-02  2.0444578361486620e-02  2.0183555046211939e-02  2.0471759577964373e-02  2.0597503792806730e-02  2.0705138923028960e-02  2.0373508531591512e-02  2.0246208680440341e-02  2.0063854870355117e-02  1.9982697951747591e-02  2.1010756901278699e-02  1.9167015521804109e-02  1.9244249037683382e-02  1.8572078253897496e-02  1.8935335631491423e-02  1.8626220847413839e-02  1.6777371270413122e-02  1.6312648984374681e-02  1.5961065591377145e-02  1.5209433141957100e-02  1.4680973748398680e-02  1.5689602565908140e-02  5.0206470217920122e-03  5.7588802918862800e-03  4.7820920399187124e-03  4.0662416631440795e-03  3.8667025691268286e-03  4.6689071015929874e-03  8.0475151533083867e-03  8.6016394898867019e-03  8.8677090582177705e-03  7.8056716382865574e-03  8.3220473939554524e-03  1.1829307456542069e-02  1.1590727831055803e-02  1.1304559479757724e-02  1.7063044816020133e-02  1.7023948051400027e-02  1.8623474286091936e-02  2.8001383738813716e-02  2.6528289123958826e-02  2.8258250246225851e-02  2.6734345672757363e-02  2.8252090733701270e-02  2.6782344855404511e-02  2.6882301221942562e-02  3.8681197851679686e-02  3.8868941088451819e-02  3.8902027882496283e-02  9.3657327598997715e-03  9.5420345707687600e-03  1.0160115377097404e-02  8.4652788503975195e-03  8.7228285162166946e-03  8.3042975322980151e-03  8.1118849278032767e-03  8.1157314298527534e-03  5.9970263990347349e-03  6.7711519055220441e-03  6.3520233644583559e-03  5.8039274258338859e-03  1.5573354993670852e-02  1.5588914553086530e-02  1.6918387145460088e-02  1.5623079769666863e-02  1.4312572387054816e-02  1.4145396146377241e-02  1.5544326104403917e-02  1.7187588437580472e-02  1.5372878695750349e-02  1.1966103483069236e-02  1.2675742273017206e-02  1.4121518221927590e-02  1.0710696074089429e-02  4.5818172096932716e-03  3.5650848619354254e-03  4.6595040609043320e-03  9.0507195247317880e-03  8.1811588873107414e-03  7.6178021519243723e-03  2.6647128767182116e-03  1.9046029556682130e-03  2.2640269642612253e-03  1.5582466730479673e-03  3.0277994635795891e-03  3.1966033472466751e-03  1.2591663209029040e-03  1.6983600084318554e-03  1.8206096279836902e-03  3.5659802212064488e-03  5.9658640392837130e-03  6.6842296414708832e-03  5.3640998819133763e-03  4.6964153426537238e-03  3.7849689546549589e-03  6.0899307679272811e-03  6.8404595673557771e-03  5.9837776929826808e-03  5.4074113557287425e-03  5.3393764819206907e-03  7.4210367602549135e-03  6.3541338899765643e-03  6.0194136837456967e-03  6.8586667427855668e-03  3.6919370429682130e-02  3.6904194105138829e-02  3.6933497341737030e-02  3.6943235083530500e-02  3.6976262774027782e-02  3.7084057802793009e-02  3.7185530995293786e-02  3.7133726595334787e-02  3.7179613027645927e-02  3.7193015003568433e-02  3.7248897673859194e-02  3.7281626345614029e-02  3.8150382905228306e-02  3.7980627721694915e-02  3.7933420205429239e-02  3.8076391760893974e-02  3.8039977518729118e-02  3.7858387274239159e-02  3.8045725443171342e-02  3.7867849509448659e-02  3.8036120075314594e-02  3.7864944847286509e-02  3.8242073960773164e-02  3.7601968773712205e-02  3.7626808157844180e-02  3.7571608136062903e-02  3.7665767922809471e-02  3.7688151387008713e-02  3.7315269508563370e-02  3.7278142106808909e-02  2.8346171662659597e-02  2.8334632470459746e-02  2.8301615848688615e-02  2.8330226064175727e-02  2.8326797265174026e-02  2.7664643870660154e-02  2.9436781745724935e-02  2.8888690313754437e-02  3.0002309223092532e-02  2.9165926828171696e-02  3.0540696817411887e-02  2.6210968403288265e-02  2.4176285378709150e-02  2.4830598440234219e-02  9.8592598013395229e-03  2.9568833028492131e-02  3.0021972897021135e-02  3.1050504112427359e-02  2.0143820272977633e-02  1.8249814646755458e-02  1.8638801267666448e-02  1.9020423044134614e-02  1.9405050687243474e-02  3.8742114444515530e-02  3.9402612321246908e-02  3.8663610209476937e-02  3.9474219775201130e-02  3.9563469243556401e-02  3.8575946070868075e-02  3.8986954652716253e-02  3.1347319187677934e-02  3.3012591614903442e-02  3.1783529591805054e-02  3.4434542551643840e-02  3.4125013903276838e-02  3.3380884819221787e-02  3.7089160089720394e-02  3.8018527085826377e-02  3.7745093808053701e-02  3.7631042012645680e-02  3.6770201427367817e-02  3.6460334793680459e-02  3.7229692362753558e-02  3.4512631834284102e-02  3.5359301850076401e-02  3.3806195418227374e-02  3.2150615937060867e-02  3.2951140861552430e-02  3.1212463407678255e-02  3.5652292126349627e-02  3.5823159239624862e-02  3.4974264498238379e-02  3.2520577322594876e-02  3.4319754343157406e-02  1.2719204230897870e-02  1.2445033792895603e-02  1.2272675183636009e-02  1.9842787670428675e-02  2.0062701824567646e-02  2.1512819901074186e-02  1.8628610245038427e-02  9.3907467267290781e-03  9.5945689743213453e-03  9.1602768508414496e-03  9.8618833273055994e-03  9.5963437350500523e-03  9.0809432950098440e-03  1.2165105823692754e-02  1.2736057154627065e-02  1.2158312244755614e-02  1.1731639035066672e-02  1.2302792524931855e-02  1.0717266872501300e-02  1.0461578841448937e-02  9.9086148735407272e-03  1.1597011750845335e-02  1.1142645978342969e-02  1.0393640968679237e-02  1.0502805421745212e-02  1.0007477838215985e-02  1.0835748992350992e-02  1.0873427975860489e-02  1.0415083152873528e-02  1.0283019704672847e-02  9.9954324190705077e-03  1.0475772793661310e-02  1.0929590862761797e-02  1.0863383680530104e-02  1.0656607267405400e-02  1.2373492337475369e-02  1.2618569703376718e-02  3.8548775703330845e-02  3.9537224535908896e-02  3.9797275618489378e-02  3.9861227552672844e-02  3.9117716185158712e-02  3.9625540272423841e-02  3.9774445306705736e-02  3.9623123161621171e-02  3.9007628387708063e-02  3.9227826258521392e-02  3.9493137940755416e-02  3.8479899429055817e-02  3.8702692384557938e-02  3.8287955541173493e-02  3.8543361918580293e-02  3.6633684424436694e-02  3.5830689948226163e-02  3.2188246447623324e-02  3.0965033180153985e-02  3.0983777602261491e-02  3.8274806624659881e-02  3.8587199053141966e-02  3.7845181914789472e-02  3.8768927702131639e-02  2.0748049488504530e-02  3.8059862500834624e-02  3.8066743426761626e-02  3.8014037448443228e-02  3.7943260871823856e-02  3.7990916833747265e-02  3.8007854238363933e-02  3.8005947608818147e-02  3.8128636482618307e-02  3.8159961210163407e-02  3.8093079323953165e-02  3.8056967384316076e-02  3.8092332512748142e-02  3.8147448769226475e-02  3.7939415188854110e-02  3.7974986649685460e-02  3.7871611004763078e-02  3.8038776434996417e-02  3.7910276214522823e-02  3.8017246519601103e-02  3.7809841505464639e-02  3.7778984023419088e-02  2.9785867395314261e-02  2.9837503018426983e-02  2.8286768772273679e-02  3.3904095985949921e-02  3.2553830559145194e-02  3.3787162834518658e-02  3.3666758743913158e-02  3.4856743696453113e-02  3.2471739085120646e-02  3.7248516450730441e-02  3.6259083264433237e-02  3.6333236610975983e-02  1.8258710725416735e-02  1.7642440779521238e-02  1.9130312972302201e-02  2.7386968981399279e-02  2.8427422525452543e-02  2.9321159629539902e-02  3.7000978561023967e-02  3.7081006672416338e-02  3.6990849110398259e-02  3.6895900606079529e-02  3.6911575003954235e-02  3.6817070943614409e-02  3.6556271925771024e-02  3.6784008920717995e-02  3.6558376462148837e-02  3.7241076341142404e-02  3.7398162599743545e-02  3.7293628160155287e-02  3.7131835547660190e-02  3.7086872420648800e-02  3.6961873353251656e-02  3.6779654094503691e-02  3.6881544004982905e-02  3.6820535504891019e-02  3.6809398823623683e-02  3.6819620049633565e-02  3.6767663441900092e-02  3.6790099172640034e-02  3.6779914032437792e-02  3.6686592061185221e-02  3.6699735917542969e-02  3.6555970071668276e-02  3.6011547956860235e-02  3.5906678813464946e-02  3.5214780907411619e-02  2.9195271617387844e-02  3.0104917896449528e-02  2.8703491456046289e-02  2.8330128383335276e-02  2.9808409220049521e-02  3.6804630591733251e-02  3.3843939729864728e-02  3.3137116880639222e-02  3.1174638904843340e-02  3.0599617024050264e-02  2.8230739237168574e-02  2.9763608633116223e-02  2.9011769092047748e-02  3.0458587685725527e-02  3.1170965585101941e-02  3.1940394365458549e-02  3.2457279410832013e-02  3.0573390977331943e-02  3.0932023479851599e-02  2.4277790955032789e-02  2.4164605704787380e-02  2.3382955187799957e-02  5.8122797854867660e-03  5.6319677896029402e-03  5.1826270327085706e-03  2.5543413244468561e-02  2.5411028838570916e-02  2.6874884763511325e-02  2.7647624086832707e-02  1.8730035016659076e-02  1.8518657605476392e-02  1.8362616690506026e-02  1.8912242276647024e-02  1.9061234868295456e-02  1.7498321099535027e-02  1.8288027674145606e-02  1.9854231163807717e-02  1.9773697811392967e-02  1.9890098831686780e-02  1.9351100680214870e-02  1.9239686146677162e-02  1.8899229544002000e-02  1.9360936244966580e-02  1.9190241918627553e-02  1.9614495092271117e-02  1.8854288817610202e-02  1.8966210030434041e-02  1.8965711894486578e-02  1.8999093955274361e-02  1.9077138099825378e-02  1.9070338587383460e-02  1.9152869183334576e-02  1.9209721646771708e-02  1.9130575367441040e-02  1.9226015176187793e-02  1.8863641978792284e-02  1.8965923465441053e-02  1.6554288299689107e-02  1.8941819184337575e-02  1.2247789777960592e-02  1.2976434612500538e-02  1.2372665375544835e-02  1.1652782797934564e-02  1.4685914337511721e-02  1.3960915811045953e-02  1.4430182641369946e-02  1.1351144765578445e-02  1.2032288507588562e-02  1.1621452721694505e-02  1.2520391565650921e-02  1.1797042420490320e-02  1.3693049643126877e-02  1.3695777314357300e-02  1.3588582164919387e-02  1.4249502333689002e-02  1.5629050146790280e-02  1.2786662394942068e-02  1.3292310887221520e-02  1.9021588819863187e-02  1.8566331577280430e-02  1.8064044016425605e-02  1.8964577874257021e-02  1.8597071584891024e-02  5.1756426338093221e-03  5.7822185237833452e-03  1.9561689066680266e-02  1.9879692590205007e-02  1.9146057373942864e-02  2.2273169886593589e-02  2.2200686352533174e-02  2.1537472029806329e-02  2.4996922748210349e-02  2.4353505023198781e-02  2.4317717627224671e-02  1.8998147922219294e-02  2.0553008132934120e-02  1.9931909587554201e-02  2.0437485265174981e-02  2.5334596686706175e-02  2.5561466124461155e-02  2.4310707586756589e-02  2.3893227377004476e-02  2.4140559389969316e-02  3.7160967585309429e-02  3.7137894427048179e-02  3.7154914249247821e-02  3.7186130711332505e-02  3.7130106211923711e-02  3.6931937132827983e-02  3.6910355859482886e-02  3.6910816396598822e-02  3.6907693440923803e-02  3.6934723530839535e-02  3.6924069146141367e-02  3.7005873306429710e-02  3.7129286787261108e-02  3.7238945359583650e-02  3.7124158731955403e-02  3.7216306607529712e-02  3.7197998957504856e-02  3.7181661352804124e-02  3.7243631850713138e-02  3.7520836014025241e-02  3.7610362280980532e-02  3.7654225615785381e-02  3.7543946739833994e-02  3.7672099950092963e-02  3.7542767711849723e-02  3.7434389984955914e-02  3.7807913811915048e-02  3.7659544718296606e-02  3.7616894326987116e-02  3.7514620386306645e-02  3.6974721697799452e-02  3.7015270975006037e-02  3.7047833401676437e-02  3.7198161722982993e-02  3.7226000180882554e-02  3.7144765769758024e-02  3.3633483300921738e-02  3.2897176732932222e-02  3.3012625991336086e-02  3.3673862515454019e-02  3.8437750716654118e-02  3.8672110756123174e-02  3.8081922239388277e-02  3.8298309134487771e-02  3.8145885256382045e-02  3.7881244560244769e-02  3.7984320304889699e-02  3.7791062312377312e-02  3.7727526849384144e-02  3.7840110322729680e-02  3.7942613480114788e-02  3.7699491176940284e-02  3.8354608074577010e-02  3.8168012165836672e-02  3.7979012438058617e-02  3.8146594856021204e-02  3.7328658819835422e-02  3.7244034773436699e-02  3.7364767531923082e-02  3.7506032089605235e-02  3.7396454169346727e-02  3.7371497615381284e-02  3.7486794433633286e-02  3.7338769913245834e-02  3.7774011494392287e-02  3.7724201518090986e-02  3.7812236968294902e-02  3.7457306288300712e-02  3.7242950073549434e-02  3.7839941291532175e-02  3.7683006442446779e-02  3.7654399947274660e-02  3.7705235303192849e-02  3.7122630803355122e-02  3.7141178461668013e-02  3.7134382792601305e-02  3.7387996026390785e-02  3.7348552587047668e-02  3.7444614885664751e-02  2.2015384451250682e-02  2.180440982