<?xml version="1.0"?>
<VTKFile type="UnstructuredGrid"  version="0.1"  >
<UnstructuredGrid>
<Piece  NumberOfPoints="6340" NumberOfCells="12376">
<Points>
<DataArray  type="Float64"  NumberOfComponents="3"  format="ascii">-0.01940100081264973 0.02069699950516224 0  -0.02010500058531761 0.02135599963366985 0  -0.02032000012695789 0.0203699991106987 0  -0.02091399952769279 0.02112499997019768 0  -0.01962799951434135 0.01977800019085407 0  -0.01924500055611134 0.02157299965620041 0  -0.01976500079035759 0.02231200039386749 0  -0.01929499953985214 0.02312600053846836 0  -0.02026999928057194 0.0230689998716116 0  -0.01878499984741211 0.02229700051248074 0  -0.00865899957716465 0.01774900034070015 0  -0.009283999912440777 0.01864499971270561 0  -0.009615000337362289 0.01770699955523014 0  -0.01024600025266409 0.01864200085401535 0  -0.02614800073206425 0.07739000022411346 0  -0.02711199969053268 0.07789599895477295 0  -0.02725500054657459 0.0771000012755394 0  -0.02671900019049644 0.07060399651527405 0  -0.02732899971306324 0.07140299677848816 0  -0.02755199931561947 0.07048399746417999 0  -0.02827999927103519 0.07099000364542007 0  -0.01316099986433983 0.08869700133800507 0  -0.01412499975413084 0.08861099928617477 0  -0.01355300005525351 0.08783400058746338 0  -0.02050199918448925 0.08309099823236465 0  -0.01950900070369244 0.08318000286817551 0  -0.02007099986076355 0.08395999670028687 0  -0.01994100026786327 0.08230700343847275 0  -0.02210400067269802 0.0245789997279644 0  -0.02116700075566769 0.02465599961578846 0  -0.0216049998998642 0.02545800060033798 0  -0.02199899964034557 0.02626599930226803 0  -0.0225600004196167 0.02539199963212013 0  -0.02065999992191792 0.02553999982774258 0  -0.02022800035774708 0.02471799962222576 0  -0.01928099989891052 0.02477299980819225 0  -0.01972400024533272 0.02559199929237366 0  -0.02165899984538555 0.02375699952244759 0  -0.02268600091338158 0.02373399958014488 0  -0.02201000042259693 0.02252000011503696 0  -0.02147799916565418 0.02184299938380718 0  -0.02120999991893768 0.02292300015687943 0  -0.02065500058233738 0.02214699983596802 0  -0.01612699963152409 0.02198999933898449 0  -0.01663099974393845 0.02111000008881092 0  -0.0156640000641346 0.02109800092875957 0  -0.01702499948441982 0.0220979992300272 0  -0.01794900000095367 0.02210599929094315 0  -0.01746400073170662 0.02298600040376186 0  0.04381600022315979 0.0824040025472641 0  0.04345399886369705 0.08150099962949753 0  0.04481099918484688 0.08177699893712997 0  0.04651099815964699 0.09400899708271027 0  0.04733400046825409 0.09438399970531464 0  0.04622200131416321 0.09487000107765198 0  0.02833399921655655 0.1026799976825714 0  0.02847900055348873 0.1017789989709854 0  0.02942799963057041 0.1022019982337952 0  0.02732899971306324 0.1031180024147034 0  0.02745800092816353 0.1020260006189346 0  -0.006357999984174967 0.09778600186109543 0  -0.005375000182539225 0.09787199646234512 0  -0.005956999957561493 0.09865999966859818 0  -0.004970000125467777 0.09874399751424789 0  -0.01854399964213371 0.0980679988861084 0  -0.01896500028669834 0.09731400012969971 0  -0.01783400028944016 0.0975089967250824 0  -0.01954800076782703 0.09819100052118301 0  -0.01429300010204315 0.1045849993824959 0  -0.01449900027364492 0.1054800003767014 0  -0.01515099965035915 0.1046790033578873 0  -0.01060799974948168 0.09653399884700775 0  -0.009642000310122967 0.09663300216197968 0  -0.01022399961948395 0.09742099791765213 0  -0.01157800015062094 0.0964289978146553 0  -0.01099599990993738 0.09564299881458282 0  -0.0119650000706315 0.09553799778223038 0  -0.01429300010204315 0.09863399714231491 0  -0.0148329995572567 0.09939000010490417 0  -0.0152989998459816 0.09851399809122086 0  -0.01313600037246943 0.09710299968719482 0  -0.014121999964118 0.09700100123882294 0  -0.01352700032293797 0.09622400254011154 0  0.01283599995076656 0.09389899671077728 0  0.0139110004529357 0.09387800097465515 0  0.01331999991089106 0.09470199793577194 0  0.007965999655425549 0.07854499667882919 0  0.008481999859213829 0.07767000049352646 0  0.009041000157594681 0.07852400094270706 0  -0.00839999970048666 0.01683999970555305 0  -0.007615999784320593 0.01701400056481361 0  -0.009228000417351723 0.016762999817729 0  -0.0100919995456934 0.01668299920856953 0  -0.01355000026524067 0.01678000018000603 0  -0.01376399956643581 0.01788300089538097 0  -0.01435900013893843 0.01699900068342686 0  -0.01299300044775009 0.01766899973154068 0  -0.01299399975687265 0.01871299929916859 0  -0.01221300009638071 0.01781200058758259 0  -0.01248800009489059 0.02165899984538555 0  -0.01296599954366684 0.0207080002874136 0  -0.01207800023257732 0.02071700058877468 0  -0.01165799982845783 0.01982700079679489 0  -0.01111800037324429 0.02065899968147278 0  -0.01255800016224384 0.01972600072622299 0  -0.01338300015777349 0.02170299924910069 0  -0.01475199963897467 0.02096300013363361 0  -0.01518999971449375 0.02193400077521801 0  -0.01428100001066923 0.02181600034236908 0  -0.009738000109791756 0.01957800053060055 0  -0.01123199984431267 0.0307180006057024 0  -0.01173000037670135 0.02985600009560585 0  -0.01079300045967102 0.02977200038731098 0  -0.006076999939978123 0.02923800051212311 0  -0.006525999866425991 0.03021200001239777 0  -0.007023999933153391 0.0293589998036623 0  -0.008818999864161015 0.01959500089287758 0  -0.006459999829530716 0.01889299973845482 0  -0.007397999987006187 0.01878700032830238 0  -0.006672999821603298 0.0180440004914999 0  -0.006767999846488237 0.01720199920237064 0  -0.005830000154674053 0.01741000078618526 0  0.04849100112915039 0.09010399878025055 0  0.04937399923801422 0.08959899842739105 0  0.04913200065493584 0.09078700095415115 0  0.04802900180220604 0.0909229964017868 0  0.01605499908328056 0.05859199911355972 0  0.01710999943315983 0.05847100168466568 0  0.01665199920535088 0.05937600135803223 0  0.02953699976205826 0.04326499998569489 0  0.02998699992895126 0.04220199957489967 0  0.0304969996213913 0.04292000085115433 0  0.03190499916672707 0.04746799916028976 0  0.03282399848103523 0.04678000137209892 0  0.03321300074458122 0.04754199832677841 0  0.03179100155830383 0.05100899934768677 0  0.03080799989402294 0.05107700079679489 0  0.03132199868559837 0.0501209981739521 0  0.03083099983632565 0.04928399994969368 0  0.0318790003657341 0.04916900023818016 0  0.03030199930071831 0.05022500082850456 0  0.02979700081050396 0.05116999894380569 0  0.02976600080728531 0.04941299930214882 0  0.02917099930346012 0.04863600060343742 0  0.02869600057601929 0.04953400045633316 0  0.02808799967169762 0.0487539991736412 0  0.04582500085234642 0.09244199842214584 0  0.04470900073647499 0.09246700257062912 0  0.04531500115990639 0.09165599942207336 0  0.04422200098633766 0.09164900332689285 0  0.007000999990850687 0.02361400052905083 0  0.007765000220388174 0.02409099973738194 0  0.007027999963611364 0.02470199950039387 0  0.007859000004827976 0.02507299929857254 0  0.02762399986386299 0.04965300112962723 0  0.02350500039756298 0.05179300159215927 0  0.02304499968886375 0.05269699916243553 0  0.02243999950587749 0.05190600082278252 0  0.02410499937832355 0.05258699879050255 0  0.03033200092613697 0.05202800035476685 0  0.01824199967086315 0.03494499996304512 0  0.01733499951660633 0.03480200096964836 0  0.01774000003933907 0.03390000015497208 0  0.01277200039476156 0.04023100063204765 0  0.01182099990546703 0.04021900147199631 0  0.01227299962192774 0.03932100161910057 0  0.01131999958306551 0.03931000083684921 0  0.0108679998666048 0.04020600020885468 0  0.01081900019198656 0.03839800134301186 0  0.01177299953997135 0.03841299936175346 0  0.01232099998742342 0.04112900048494339 0  -0.02814099937677383 0.07188399881124496 0  -0.02702699974179268 0.07225199788808823 0  -0.02801400050520897 0.07270099967718124 0  -0.02635500021278858 0.07152199745178223 0  -0.02595200017094612 0.07237599790096283 0  -0.02490999922156334 0.07250300049781799 0  -0.02538000047206879 0.07327599823474884 0  -0.02434000000357628 0.07174400240182877 0  -0.023887999355793 0.07261399924755096 0  -0.02439700067043304 0.07338599860668182 0  -0.0283879991620779 0.07006800174713135 0  -0.01963800005614758 0.08482500165700912 0  -0.02063100039958954 0.08473700284957886 0  -0.01907799951732159 0.09398099780082703 0  -0.02005100063979626 0.09393399953842163 0  -0.01947600021958351 0.09314200282096863 0  -0.0204440001398325 0.09309899806976318 0  -0.01986999996006489 0.09230100363492966 0  -0.01802299916744232 0.09667900204658508 0  -0.01708599925041199 0.09675499796867371 0  -0.01678800024092197 0.09760099649429321 0  -0.01451599970459938 0.08774799853563309 0  -0.01189300045371056 0.08136700093746185 0  -0.01090400014072657 0.0814569965004921 0  -0.01146799977868795 0.08223800361156464 0  -0.01106400042772293 0.08310800045728683 0  -0.01049300003796816 0.08232700079679489 0  -0.01575100049376488 0.0793209969997406 0  -0.01620000042021275 0.07843600213527679 0  -0.01520599983632565 0.07853099703788757 0  -0.01421300042420626 0.07862599939107895 0  -0.01465899962931871 0.07774200290441513 0  -0.01894900016486645 0.08239799737930298 0  -0.01839499920606613 0.08160699903964996 0  -0.01939000003039837 0.08151300251483917 0  -0.02038599923253059 0.08142100274562836 0  -0.02494199946522713 0.07416299730539322 0  -0.0254989992827177 0.07662399858236313 0  -0.02510399930179119 0.07749000191688538 0  -0.02304399944841862 0.02437799982726574 0  -0.02339000068604946 0.02500000037252903 0  -0.02364899963140488 0.02562700025737286 0  -0.0239269994199276 0.02630200050771236 0  -0.02292300015687943 0.02623900026082993 0  -0.01977499946951866 0.02391600050032139 0  -0.01881900057196617 0.02395999990403652 0  -0.02073399908840656 0.02384199947118759 0  -0.02233799919486046 0.02310900017619133 0  -0.01758500002324581 0.01827000081539154 0  -0.01721099950373173 0.01903400011360645 0  -0.01830999925732613 0.0186500009149313 0  -0.01684200018644333 0.0178810004144907 0  -0.01834399998188019 0.02309799939393997 0  -0.016548000
[...]
<PointData  Scalars="pressure"> 
<DataArray  type="Float64"  Name="pressure"  format="ascii">9.0849952896133152e-02  9.0715588392487251e-02  9.0797597781527156e-02  9.0656288437017174e-02  9.0906205186216199e-02  9.0755763304446971e-02  9.0604121153187306e-02  9.0496870645444566e-02  9.0418691514687760e-02  9.0681282339483568e-02  9.0259159021892799e-02  9.0247734327338153e-02  9.0441176925899883e-02  9.0410039148506469e-02  6.6146970885862577e-02  6.6108652489534500e-02  6.6495919478139751e-02  6.9756790001452892e-02  6.9468558755663407e-02  6.9834019358286634e-02  6.9634306038951599e-02  4.6694323172286278e-02  4.8079328818411350e-02  4.7962074867524913e-02  6.0042445175863567e-02  5.9301049354571464e-02  5.8995828136565370e-02  6.0356058841442184e-02  8.9844740380989843e-02  8.9953393820892263e-02  8.9677684809869776e-02  8.9377797171991680e-02  8.9553185355818535e-02  8.9774109227965110e-02  9.0047453461221089e-02  9.0143160771147479e-02  8.9882930003916173e-02  9.0106559648966078e-02  8.9979733177693699e-02  9.0316122579135766e-02  9.0491752800796577e-02  9.0339021746018711e-02  9.0542827861636449e-02  9.0794392777781008e-02  9.0896658215293719e-02  9.0873597396675804e-02  9.0782947842567796e-02  9.0756202587071788e-02  9.0641783008830773e-02  3.3793495591873238e-02  3.3425812747414470e-02  3.3880601261809237e-02  3.1130938649417430e-02  3.0660866503638480e-02  3.1184756057213488e-02  4.9110552612613330e-02  4.9043808652575738e-02  4.8336463578718659e-02  4.9657934496491030e-02  4.9716768489843507e-02  3.4544579776829870e-02  3.4211148294764564e-02  3.4117871422203204e-02  3.3879338717084997e-02  4.3533874119240618e-02  4.4399619338681036e-02  4.3504960530219454e-02  4.3892098456113846e-02  3.7396493197305619e-02  3.7420282237889638e-02  3.7654840370798116e-02  3.7983630023393847e-02  3.7111140706637416e-02  3.7063038937259651e-02  3.8915250524193937e-02  3.8985970612771953e-02  3.9943869961551630e-02  3.9868363502513327e-02  3.9829607855458291e-02  4.0756070492560852e-02  3.9851391771787543e-02  4.0843706372940047e-02  4.0904579066523963e-02  3.5304878071724555e-02  3.6364650588288208e-02  3.7978140129882876e-02  9.5395288641820022e-04  9.6000110646607059e-04  2.4581972149698150e-04  9.0326717318002861e-02  9.0141970625664120e-02  9.0484479391919725e-02  9.0580224394849598e-02  9.0986646214689215e-02  9.0944073594564606e-02  9.1031118731652580e-02  9.0868841635375494e-02  9.0816591246897838e-02  9.0779223333342207e-02  9.0522379574510481e-02  9.0683551551935818e-02  9.0556846395224100e-02  9.0567657834877524e-02  9.0399648076782843e-02  9.0709563106929805e-02  9.0638761440644866e-02  9.0838510252233926e-02  9.0766531601911254e-02  9.0716239116181374e-02  9.0250887745249336e-02  8.9239946977045043e-02  8.9409632117847304e-02  8.9256591666905388e-02  8.7406265586219584e-02  8.7533721323223262e-02  8.7886200848755383e-02  9.0058137536658561e-02  8.9583201131858317e-02  8.9805012198781814e-02  8.9802472668508354e-02  8.9960460332344769e-02  8.9703092053097261e-02  3.0954013403024391e-02  3.0737434943457591e-02  3.0584350141897570e-02  3.0929618401340956e-02  3.4616366510006789e-02  3.5782641570148661e-02  3.3426851469169884e-02  6.1471005216027753e-02  6.2060947985533577e-02  6.1655026592752425e-02  5.8739184207487333e-02  5.9074964568452293e-02  5.8665355666227013e-02  5.5952518278372422e-02  5.5903685229491691e-02  5.6713642497950717e-02  5.7440395962573915e-02  5.7392305594621544e-02  5.6641378959851274e-02  5.5720886370172237e-02  5.7347542471165872e-02  5.8024327087369973e-02  5.7154224610843012e-02  5.7835006691010285e-02  3.1669929374159099e-02  3.2279003850167937e-02  3.2030713753268748e-02  3.2630293443297063e-02  8.1908568989943017e-02  8.1373385637366236e-02  8.1344883429862985e-02  8.0849530671604691e-02  5.6850012385589219e-02  5.2506918358309285e-02  5.0900781270549519e-02  5.1762589757641725e-02  5.1682829608841227e-02  5.4970463969160784e-02  7.0058104259855508e-02  7.0623390257281538e-02  7.0895521100893977e-02  6.8089874230449571e-02  6.8496551158533397e-02  6.9400503055688983e-02  6.9859443852029274e-02  6.8945120967733975e-02  7.1159927106479975e-02  7.0652199954876815e-02  6.7094583394207319e-02  6.9267734538052753e-02  6.9033075912119629e-02  6.9010505075981998e-02  6.9256262103398455e-02  6.8802763624375957e-02  6.8431598838695207e-02  6.8192508499047011e-02  6.8586771087414428e-02  6.8013249232609346e-02  6.7853689742235324e-02  7.0195112722601871e-02  5.7837542015873017e-02  5.8592960854025780e-02  4.7823403562155822e-02  4.8610904550196503e-02  4.8988352840861629e-02  4.9767922470178819e-02  5.0169701995401966e-02  4.4401164753309269e-02  4.3602145529246100e-02  4.2639836406928783e-02  4.9356022465457713e-02  4.9243927351738714e-02  4.6958518159383469e-02  4.7982417178345067e-02  4.6812581919079894e-02  4.5865970385093512e-02  5.7478119613738637e-02  5.8503819129762526e-02  5.6807409559761546e-02  5.4880153203901466e-02  5.5923331413173613e-02  5.9514624662024423e-02  5.9594337635210333e-02  6.0568894350129007e-02  6.1375297859023584e-02  6.7645573379088275e-02  6.6518069047406453e-02  6.5892516303208221e-02  8.9768216197359210e-02  8.9551097987319417e-02  8.9336356428623073e-02  8.9073803210036495e-02  8.9238496590176991e-02  9.0287551068292560e-02  9.0371944422360018e-02  9.0204133686175136e-02  9.0165517822122565e-02  9.1074736764733183e-02  9.1046280004872970e-02  9.1050575675458489e-02  9.1096821548210166e-02  9.0576158289502107e-02  9.0667531195186155e-02  9.0534824536484163e-02  9.0509922396344228e-02  8.9335203647700367e-02  8.9167448931614851e-02  8.9205840229580780e-02  9.0374312850538693e-02  8.9922264803004498e-02  8.9659873729314998e-02  8.9894628340289856e-02  8.9675132655455334e-02  8.9949004598117860e-02  8.9386560459532166e-02  8.9103454633772977e-02  8.9403856084161959e-02  3.0139086670029694e-02  2.9648907708583375e-02  2.9926451321720310e-02  3.2658836374933178e-02  3.2226253572887380e-02  3.2761737538405708e-02  3.5607237952048447e-02  3.6147246970113650e-02  3.5756037793279356e-02  3.3684199164469457e-02  3.2482504593317862e-02  3.3271631882585660e-02  3.3028139223166671e-02  3.2340135920278137e-02  3.2002590189418062e-02  3.1570050621965065e-02  3.3297861973232951e-02  3.2988105389344137e-02  3.3646108350174571e-02  3.3351539779300395e-02  3.1364323634476179e-02  3.1698243859819453e-02  3.2306549191422756e-02  3.2991193925662292e-02  3.3790362994284118e-02  3.3318408994822288e-02  3.1925530885683680e-02  5.0321788165656689e-02  5.0404869973871717e-02  5.0789137515568933e-02  5.0350371512491013e-02  5.0086960505506609e-02  5.0523776406942958e-02  5.0077153851737916e-02  3.5581101328718785e-02  3.5618124480588931e-02  3.6281882060155798e-02  3.6368397336539113e-02  3.4724686868188637e-02  3.4671224048306921e-02  3.4453480868292724e-02  3.4860219330713156e-02  3.3815091098870619e-02  4.2888808285649997e-02  3.8521267462500078e-02  3.9230923094629652e-02  3.8696737894753488e-02  3.8263507842481545e-02  3.8478579579080428e-02  3.7517997758292954e-02  3.7957486952618920e-02  3.7876667066802719e-02  3.7355738568990715e-02  3.7583655416528729e-02  3.8200608134389274e-02  3.7075968669262105e-02  4.0975678842972985e-02  4.1057979301685379e-02  4.2101423382871796e-02  4.1887870014259435e-02  3.8041628027050300e-02  3.6325228313558749e-02  3.5727999094643970e-02  3.8362781582076087e-02  3.9028511812337671e-02  3.8285755392136286e-02  3.8189854707045501e-02  3.7589544743354471e-02  3.7957253753130658e-02  3.8878352963163006e-02  3.8010565703191682e-02  3.9886516976896588e-02  3.8092336508606418e-02  3.7252017387402067e-02  3.8954522902940644e-02  3.8939629833654607e-02  4.0627754946785499e-02  4.0809529326089958e-02  3.8913523931630764e-02  3.6735763746618966e-02  3.6148746138836514e-02  3.6925178818598227e-02  3.6381738968844786e-02  3.4477298617245154e-02  3.4333698202912127e-02  3.4851691713284401e-02  3.5032868496617527e-02  4.0223161197293147e-02  4.0565807427771119e-02  4.0589324542135714e-02  4.0217681470571934e-02  4.0373533889378317e-02  4.0297084290179891e-02  4.0260821533212934e-02  4.0265356147801287e-02  4.0328207842013658e-02  4.0279424211471480e-02  4.9546421149926204e-02  5.0009586859710020e-02  4.9942183097292592e-02  4.9523481109894907e-02  4.9069772644130746e-02  4.2908074234159710e-02  4.2356342265986988e-02  4.2566800047866213e-02  4.0401044832824071e-02  3.9875986057998983e-02  4.0892664881263058e-02  3.7244182578081667e-02  3.8311660041482690e-02  3.7835014098160938e-02  3.6345586445314958e-02  3.8777492833908557e-02  3.7477238115786744e-02  3.4872533440340470e-02  3.6113648799508298e-02  3.8736739348702358e-02  1.4152650436116722e-03  2.5433808506089388e-03  2.0975184139585476e-03  2.0787247176391500e-03  1.1408471707944380e-03  7.2218948182461440e-03  7.0674216937015172e-03  5.7893362916911287e-03  3.6989011130684903e-02  3.8102061324562835e-02  3.9238055687470443e-02  4.5655631237160196e-02  4.4671500836926281e-02  4.6550275816275584e-02  4.5596181432247418e-02  5.2940322848917407e-02  5.1234644587169226e-02  5.2310611404356416e-02  8.9037990952043719e-02  8.8953864213218853e-02  8.8801814696426021e-02  3.4112691980810371e-02  3.5220803013913338e-02  3.6428226322419863e-02  2.9960184753457294e-02  3.1547551054724794e-02  2.9225182400819890e-02  2.6864850958491476e-02  2.8582412728703384e-02  3.7676284494090426e-02  3.5820286704076193e-02  3.6721847135671469e-02  3.4410074660129207e-02  3.5012627229005305e-02  3.4379477492563579e-02  3.5499179737224523e-02  3.5477934598698913e-02  3.4592285958570605e-02  3.4970048068633575e-02  3.5846907697795714e-02  3.6706093291717097e-02  3.6017907819804899e-02  3.4668880279951755e-02  3.4960752933136191e-02  3.5513513327400305e-02  3.4195401040651434e-02  3.9937858401250907e-02  3.8497639914099789e-02  4.0875708341949035e-02  4.0411240144328474e-02  3.9226349929734998e-02  4.0092145129962981e-02  3.0626886027137236e-02  2.9008159861174505e-02  2.7779946863184520e-02  2.6139788550969607e-02  3.4715268079210986e-02  3.3420556451447779e-02  2.7563404871763220e-02  3.0458685751759980e-02  3.3532605836013737e-02  3.9119494820600363e-02  4.3906042991106536e-02  4.4944900366049013e-02  4.2888780567057763e-02  4.1657223666337707e-02  3.9561385974927393e-02  0.0000000000000000e+00  1.7255120277004377e-05  4.6165038908147632e-04  4.1220215785441050e-04  1.1517084672961198e-03  5.1498462318644647e-04  2.7140449560625786e-03  1.3687046306020828e-03  1.5924795143941635e-03  9.0933146198721670e-02  9.1090437028836735e-02  9.1063703452650718e-02  9.1037101117420416e-02  9.0812254518276236e-02  9.0895375976158377e-02  9.0855144974577084e-02  9.0529594909672079e-02  9.0582697174083848e-02  9.0672644360797333e-02  9.0695847486436276e-02  9.0527567676864512e-02  8.9487419047556638e-02  8.9569112885147406e-02  8.9623944239711734e-02  8.9485655164528097e-02  8.9238736432511845e-02  8.9197465121388694e-02  8.8961910817605572e-02  8.8885825424963066e-02  8.8606801651456804e-02  8.8513694028123355e-02  8.7039039067538210e-02  8.7611714867425833e-02  8.7589810514799055e-02  8.7981722976680776e-02  8.7580808810803698e-02  8.7195939798359157e-02  9.0023311488732646e-02  8.9821301332566411e-02  7.0237532787891618e-02  7.0396878341909747e-02  7.1036648894133858e-02  7.0759950109082495e-02  7.0945198694575287e-02  7.2683147509173957e-02  7.4787127943610809e-02  7.4371033734062147e-02  7.4253431832919076e-02  7.3162037653585671e-02  7.4681115306701545e-02  4.1013234157651804e-02  3.9938802549643479e-02  4.0290851939103339e-02  3.3428769234756621e-02  4.3662309539771682e-02  4.4059049380547492e-02  4.5073311028454431e-02  3.1188419607899507e-02  3.2292152436364192e-02  3.1919747758310392e-02  3.1919298567992312e-02  3.1625933737351029e-02  5.3637543836149479e-02  5.4530520036626964e-02  5.3631651258122470e-02  5.4548662555265491e-02  5.4919174367015745e-02  5.3647705607184626e-02  5.4420059199079746e-02  4.6025089100307663e-02  4.7443674010350413e-02  4.6162575101028530e-02  4.8765078593762209e-02  4.8731297543804390e-02  4.7523648902173220e-02  5.3094353105464280e-02  5.4195876225662916e-02  5.3381538986416510e-02  5.2595607350705356e-02  5.1423138880307140e-02  5.1377283661799021e-02  5.2463725399850045e-02  5.0414378139038013e-02  5.0874163118202254e-02  4.9396736525571930e-02  4.7791854019572796e-02  4.8249321367620397e-02  4.6654957942020278e-02  4.9618145768138541e-02  4.9984879266622144e-02  4.8893809735286384e-02  4.6463152780239506e-02  4.8145033540886145e-02  2.2352738171433399e-02  2.0129973727869545e-02  2.0833671112037724e-02  3.7415970324580855e-02  3.8393092652532421e-02  3.9555254152896485e-02  3.8200626230995502e-02  1.6508998010634861e-02  1.4891535108010728e-02  1.6808998990709589e-02  1.4703664294143734e-02  1.6440333586644870e-02  1.8364509352063740e-02  4.4229170067334699e-02  4.6277596319401260e-02  4.3948680959811665e-02  4.2271313401990411e-02  4.4624586825633437e-02  3.8105038003624123e-02  3.7740092710487318e-02  3.5934962432073891e-02  4.1924820257566608e-02  3.9972592741638134e-02  2.1050300744543095e-02  1.8714377974102737e-02  2.0030751341251464e-02  1.9896765539717150e-02  2.2225477525581183e-02  2.3473070394302409e-02  1.5109161108295481e-02  1.7072236350017568e-02  1.5708723963231683e-02  2.8160905218125018e-02  2.9641618628472605e-02  2.8207645736011821e-02  1.7958746056317511e-02  1.9559715324091571e-02  6.0924353159506964e-02  5.5876502149597440e-02  5.6559562519711087e-02  5.5829087265308580e-02  5.5153081807277710e-02  5.7866763332022272e-02  5.7190731269456743e-02  5.7252323831339678e-02  5.9152835218240760e-02  5.8140109846873747e-02  5.6656624409020889e-02  5.9940712841585336e-02  5.9365744627092445e-02  5.9348979423612253e-02  5.8759529177221076e-02  5.7545593397236111e-02  5.6440976152794420e-02  5.6523677146764144e-02  5.5110403358351948e-02  5.6046238618436661e-02  6.0511878502784798e-02  6.0443096911254615e-02  5.6446510703055813e-02  5.8118984098682477e-02  3.2393573783603295e-02  8.0254690631604814e-02  8.0835459123372699e-02  8.0271410971887669e-02  7.9078100902263804e-02  7.9121096576662137e-02  7.9680947331826263e-02  7.9777948962875878e-02  8.3818593857838491e-02  8.3811562175600290e-02  8.4444898982528452e-02  8.4452539897225634e-02  8.3839121160907915e-02  8.3156394179964038e-02  8.5535770674877415e-02  8.5516800560776568e-02  8.5987455421906112e-02  8.5014028229450173e-02  8.5966684879835206e-02  8.5498801892752788e-02  8.6398151517554922e-02  8.6422761629750156e-02  5.0044032322721130e-02  4.9190682814078832e-02  4.8308643729394668e-02  5.3114935346952760e-02  5.2409198230769283e-02  5.3878862048182832e-02  5.4661899134965511e-02  5.5224243298702333e-02  5.3212448949215584e-02  5.3904081817895341e-02  5.2690495527256950e-02  5.3491554491411415e-02  3.5010543330944451e-02  3.3957421920871422e-02  3.5647765892955000e-02  4.3277887300064100e-02  4.4369959953712630e-02  4.4983302500145372e-02  7.1408484402920913e-02  7.2071229212076912e-02  7.1418086255686603e-02  7.0609128373098240e-02  7.0841298090927957e-02  7.0024041221527708e-02  7.0815914742118180e-02  7.1156930248877565e-02  7.0305183452278722e-02  6.5315644488718266e-02  6.4810873729144111e-02  6.4877677844180082e-02  6.5384870107639548e-02  6.5818209582079276e-02  6.5520031092843961e-02  6.5872080545989947e-02  6.6192582515654089e-02  6.7402801388705053e-02  6.7597860137653260e-02  6.8085713645864895e-02  6.8485786194631582e-02  6.8100250128239392e-02  6.7399489167375592e-02  6.7173686454272241e-02  6.7889459080564457e-02  7.6078738945418875e-02  7.5146205253167134e-02  7.5701334114981478e-02  7.4690140342851596e-02  6.1193562606983769e-02  6.1221872916590390e-02  5.9823981169458570e-02  6.1239825725708734e-02  6.2601030014575995e-02  7.1676183767073687e-02  6.8972382523848491e-02  6.7710195267662227e-02  6.3835778182917136e-02  6.2515584548764269e-02  6.2874425935033756e-02  6.4185898503101649e-02  6.2704139053513019e-02  6.3989083038904437e-02  6.5375098951762564e-02  6.6732236189915209e-02  6.6437445233167608e-02  6.5647425728484088e-02  6.7485153623824623e-02  6.6040209337827893e-02  6.5869466648215802e-02  6.5089795212731449e-02  3.2465599775532747e-02  3.3835413467165329e-02  3.0935077337484206e-02  6.7253470044989036e-02  6.7060985328601969e-02  6.8526214002241181e-02  6.9463821988474478e-02  5.2506413175995949e-02  5.2810512278686744e-02  5.1511195058845993e-02  5.2133157336192865e-02  5.3359199119042411e-02  5.6340173412176106e-02  5.7969444993635322e-02  5.4833468687866475e-02  5.4383361421068595e-02  5.5283557459444688e-02  5.8131421904261280e-02  5.4572078331609555e-02  5.3750415805859916e-02  5.4136858070667579e-02  5.6609059622177341e-02  5.7460065643829793e-02  4.4831175287229040e-02  4.5585346967795343e-02  4.6232195948214067e-02  4.6319886820675463e-02  4.6933617124448337e-02  4.7445615987848057e-02  4.8069465785377248e-02  4.9257032139204487e-02  4.8561045672563460e-02  4.9801094558054669e-02  4.9356293437624890e-02  5.0543585026291291e-02  4.6811014086640269e-02  4.5187512930232300e-02  3.8872900628831003e-02  4.0435817975311109e-02  3.9686475191461401e-02  3.8117016669705003e-02  4.7606576018431677e-02  4.5694055617128235e-02  4.6409972159480867e-02  3.8136102101636302e-02  4.0396876158660458e-02  3.8951559332437984e-02  4.1599493576994204e-02  3.9433760950482524e-02  4.4517592357243646e-02  4.1937006687902956e-02  4.0999952435334538e-02  4.2394868995789932e-02  4.6487341857345765e-02  4.2543508403124035e-02  4.4685922777799272e-02  5.9376376361423747e-02  5.8256843878927940e-02  5.7801484612211990e-02  5.9436284977543108e-02  5.8764713568146422e-02  3.2313480193372317e-02  3.5226840586502613e-02  6.0423840348669655e-02  6.0917892507900681e-02  5.9752806090827643e-02  6.4108526896294649e-02  6.3999761832703964e-02  6.3241997761010457e-02  6.6784026246672623e-02  6.6184785039986913e-02  6.6140242403547531e-02  5.8464142990989169e-02  6.1573054039409596e-02  6.0664108626466082e-02  6.1618028493029546e-02  6.6724474798183137e-02  6.6971040115586994e-02  6.5673334002095241e-02  6.5073643220451005e-02  6.5507845735423800e-02  8.8895124201304701e-02  8.8783148351603655e-02  8.8514845618085231e-02  8.8688382090087420e-02  8.8474770589364315e-02  9.0940216790745598e-02  9.0994951829943271e-02  9.0977547057165223e-02  9.1015731018617624e-02  9.0877340894087000e-02  9.0942146306807706e-02  9.0671089344654315e-02  8.6508967552338639e-02  8.6710525414915890e-02  8.6124852850623490e-02  8.7046302959416177e-02  8.7364729374135530e-02  8.7660706064345020e-02  8.7820054272196954e-02  8.9170308976544266e-02  8.9321157018580163e-02  8.8997229031998332e-02  8.8810452687608205e-02  8.8623428911556432e-02  8.8410564472238037e-02  8.9002649070499262e-02  8.8831801905608840e-02  8.8198506427809409e-02  8.7721816089913349e-02  8.7965525543858183e-02  8.5493396703872820e-02  8.5924939168953829e-02  8.6331869638082981e-02  8.9590179179523416e-02  8.9708806515340619e-02  9.0364576441175071e-02  7.7963230843189929e-02  7.7009772335517035e-02  7.7165656076024880e-02  7.8047017691317624e-02  8.9153647531108798e-02  8.8987011502568769e-02  8.9181615372809220e-02  8.9042141720244994e-02  8.8869205506527535e-02  8.9316510265899679e-02  8.9425278231540561e-02  8.7980860785505377e-02  8.7463020643479134e-02  8.7177646047775559e-02  8.6855405069626496e-02  8.6539432759711182e-02  8.8705610929011164e-02  8.8489380452085376e-02  8.8241433388895313e-02  8.8027202819296116e-02  9.0002146324109661e-02  9.0210893108583184e-02  9.0053282086547920e-02  8.9898466575184688e-02  9.0070919506771666e-02  8.9869932547460646e-02  8.9839011763618498e-02  9.0032462271573188e-02  8.9722126399386287e-02  8.9766227552668110e-02  8.9618996398404496e-02  8.9967962072425078e-02  9.0084223968881633e-02  8.9443041900249209e-02  8.9427357672069122e-02  8.9641791693088155e-02  8.9149153610971019e-02  9.0192736329305911e-02  9.0213417211019997e-02  9.0160589299510652e-02  8.9380715174697298e-02  8.9388818664779018e-02  8.9061533804477705e-02  2.9800465655665961e-02  2.932757576