<?xml version="1.0"?>
<VTKFile type="UnstructuredGrid"  version="0.1"  >
<UnstructuredGrid>
<Piece  NumberOfPoints="6340" NumberOfCells="12376">
<Points>
<DataArray  type="Float64"  NumberOfComponents="3"  format="ascii">-0.01937899924814701 0.02068999968469143 0  -0.02004200033843517 0.0213409997522831 0  -0.02026999928057194 0.02036000043153763 0  -0.02080800011754036 0.02109399996697903 0  -0.01961199939250946 0.01977100037038326 0  -0.01921699941158295 0.02156499959528446 0  -0.01969899982213974 0.0222960002720356 0  -0.01923700049519539 0.02311200089752674 0  -0.02015299908816814 0.02303300052881241 0  -0.01876199990510941 0.02229000069200993 0  -0.008817000314593315 0.01754499971866608 0  -0.009438999928534031 0.01846699975430965 0  -0.00977300014346838 0.01752899959683418 0  -0.01040100026875734 0.0184909999370575 0  -0.02546700090169907 0.0752979964017868 0  -0.02640599943697453 0.07572700083255768 0  -0.0265519991517067 0.07494000345468521 0  -0.02592200040817261 0.06869900226593018 0  -0.02653799951076508 0.06943300366401672 0  -0.02673500031232834 0.0685259997844696 0  -0.02745999954640865 0.06897000223398209 0  -0.01300700008869171 0.08707799762487411 0  -0.01392399985343218 0.08693700283765793 0  -0.01333600003272295 0.08623199909925461 0  -0.01987200044095516 0.08125299960374832 0  -0.0189059991389513 0.08140499889850616 0  -0.01945699937641621 0.0821240022778511 0  -0.01932599954307079 0.08052899688482285 0  -0.02181299962103367 0.02446000091731548 0  -0.02095000073313713 0.02457999996840954 0  -0.02132399939000607 0.02534300088882446 0  -0.02165699936449528 0.02611500024795532 0  -0.02220400050282478 0.02523300051689148 0  -0.02045300044119358 0.02546799927949905 0  -0.02007099986076355 0.02466700039803982 0  -0.01918100006878376 0.02474300004541874 0  -0.01957499980926514 0.02554400078952312 0  -0.02143399976193905 0.02367600053548813 0  -0.02237799949944019 0.02360600046813488 0  -0.02180000022053719 0.02245000004768372 0  -0.02131799980998039 0.02179200015962124 0  -0.02103899978101254 0.0228669997304678 0  -0.02053900063037872 0.02211200073361397 0  -0.01619699969887733 0.02198000065982342 0  -0.0166970007121563 0.02110300026834011 0  -0.01575499959290028 0.02108000032603741 0  -0.01706999912858009 0.0220979992300272 0  -0.01796000078320503 0.02210200019180775 0  -0.01748000085353851 0.02298299968242645 0  0.04276899993419647 0.08079099655151367 0  0.0423859991133213 0.07994700223207474 0  0.04371000081300735 0.08016300201416016 0  0.04591500014066696 0.09143999963998795 0  0.04672500118613243 0.0917619988322258 0  0.04562300071120262 0.09225600212812424 0  0.02787899971008301 0.1001970022916794 0  0.02802900038659573 0.0993489995598793 0  0.02896500006318092 0.09971100091934204 0  0.02688200026750565 0.1006430014967918 0  0.02701799944043159 0.09961599856615067 0  -0.006515999790281057 0.09602200239896774 0  -0.005526000168174505 0.09615500271320343 0  -0.006115000229328871 0.09686700254678726 0  -0.005119000095874071 0.09700000286102295 0  -0.01856900006532669 0.09565799683332443 0  -0.01895499974489212 0.09491900354623795 0  -0.01786099933087826 0.09516800194978714 0  -0.01954899914562702 0.09571699798107147 0  -0.0145049998536706 0.1020300015807152 0  -0.01472000032663345 0.1028629988431931 0  -0.0153609998524189 0.1020750030875206 0  -0.01074799988418818 0.0946350023150444 0  -0.009790999814867973 0.09477700293064117 0  -0.0103789996355772 0.09548900276422501 0  -0.01170200016349554 0.09448599815368652 0  -0.01111400034278631 0.09377499669790268 0  -0.01206700038164854 0.0936259999871254 0  -0.01441700011491776 0.09642399847507477 0  -0.01496300008147955 0.09710799902677536 0  -0.01540399994701147 0.09625700116157532 0  -0.01324899960309267 0.09504000097513199 0  -0.01421499997377396 0.09489099681377411 0  -0.01361399982124567 0.09418900310993195 0  0.01261799968779087 0.09251800179481506 0  0.01368100009858608 0.09245999902486801 0  0.01308999955654144 0.0932530015707016 0  0.007912999950349331 0.07830999791622162 0  0.008383999578654766 0.07748399674892426 0  0.008976000361144543 0.07825200259685516 0  -0.008559999987483025 0.01662000082433224 0  -0.007776000071316957 0.01677300035953522 0  -0.009387999773025513 0.01656600087881088 0  -0.01025199983268976 0.01650900021195412 0  -0.01370000001043081 0.01669000089168549 0  -0.01390499994158745 0.0178069993853569 0  -0.01449900027364492 0.01692900061607361 0  -0.0131419999524951 0.01757300086319447 0  -0.01313900016248226 0.01862600073218346 0  -0.01236500032246113 0.01769999973475933 0  -0.01262100040912628 0.02158400043845177 0  -0.01310000009834766 0.02063699997961521 0  -0.01221999991685152 0.02062599919736385 0  -0.01180399954319 0.01971900090575218 0  -0.01126299984753132 0.0205450002104044 0  -0.01270100008696318 0.01963800005614758 0  -0.0135070001706481 0.02164899930357933 0  -0.01486499980092049 0.0209330003708601 0  -0.0152829997241497 0.02191399969160557 0  -0.01439500041306019 0.02178299985826015 0  -0.009890999644994736 0.01942200027406216 0  -0.01132700033485889 0.03068999946117401 0  -0.01182499993592501 0.02983099967241287 0  -0.01089899986982346 0.02972600050270557 0  -0.00620400020852685 0.0290719997137785 0  -0.006649999879300594 0.03006800077855587 0  -0.007151000201702118 0.02921999990940094 0  -0.008971000090241432 0.01941299997270107 0  -0.006616000086069107 0.01863599941134453 0  -0.007553000003099442 0.01855700090527534 0  -0.006831000093370676 0.01778499968349934 0  -0.006928000133484602 0.01693700067698956 0  -0.00598999997600913 0.01711999997496605 0  0.04782800003886223 0.08773700147867203 0  0.04862700030207634 0.08725800365209579 0  0.04850399866700172 0.08833900094032288 0  0.04743799939751625 0.08849599957466125 0  0.01562200020998716 0.05823900178074837 0  0.01664900034666061 0.05808300152420998 0  0.01620900072157383 0.05900200083851814 0  0.02865899913012981 0.0424950011074543 0  0.02908699959516525 0.04142000153660774 0  0.02959699928760529 0.04211800172924995 0  0.03102800063788891 0.04657899960875511 0  0.03192000091075897 0.04585900157690048 0  0.0323060005903244 0.0466030016541481 0  0.03093899972736835 0.05010800063610077 0  0.02998599968850613 0.05020999908447266 0  0.03047999925911427 0.04924000054597855 0  0.02999399974942207 0.04842500016093254 0  0.03101699985563755 0.04827100038528442 0  0.02948500029742718 0.04938200116157532 0  0.02899900078773499 0.05034000054001808 0  0.02895399928092957 0.04859400168061256 0  0.02836400084197521 0.04784699901938438 0  0.02790899947285652 0.04875700175762177 0  0.02730399928987026 0.0480090007185936 0  0.04524699971079826 0.08999700099229813 0  0.04414400085806847 0.09005899727344513 0  0.04474899917840958 0.08927799761295319 0  0.04366900026798248 0.08930999785661697 0  0.006754999980330467 0.02289099991321564 0  0.00750300008803606 0.02335499972105026 0  0.006785999983549118 0.02399300038814545 0  0.007598000112921 0.02434699982404709 0  0.02685900032520294 0.04892000183463097 0  0.02284299954771996 0.05120600014925003 0  0.02240199968218803 0.05212299898266792 0  0.02179899998009205 0.05135500058531761 0  0.02344200015068054 0.05197500064969063 0  0.02952500060200691 0.05117499828338623 0  0.01769099943339825 0.03428100049495697 0  0.0168210007250309 0.03413800150156021 0  0.01720999926328659 0.03322099894285202 0  0.01242700032889843 0.03964899852871895 0  0.01150299981236458 0.03964199870824814 0  0.01193900033831596 0.03872799873352051 0  0.01101399958133698 0.03872200101613998 0  0.01057699974626303 0.03963400050997734 0  0.01052500028163195 0.03780199959874153 0  0.0114510003477335 0.03780899941921234 0  0.01199099980294704 0.04056200012564659 0  -0.02734499983489513 0.06983999907970428 0  -0.02626300044357777 0.07027100026607513 0  -0.02724000066518784 0.07063499838113785 0  -0.02558800019323826 0.06961400061845779 0  -0.02521299943327904 0.07046499848365784 0  -0.02419600076973438 0.07065799832344055 0  -0.02467400021851063 0.07136999815702438 0  -0.0236200001090765 0.06996600329875946 0  -0.02319799922406673 0.07083500176668167 0  -0.02371400035917759 0.07154300063848495 0  -0.02754399925470352 0.06806600093841553 0  -0.01904500089585781 0.08298800140619278 0  -0.02000599913299084 0.08284000307321548 0  -0.01893600076436996 0.09175100177526474 0  -0.01986400038003922 0.09164799749851227 0  -0.01927400007843971 0.09092900156974792 0  -0.0201990008354187 0.09083099663257599 0  -0.0196090005338192 0.09010499715805054 0  -0.01801900006830692 0.094370998442173 0  -0.01710999943315983 0.0944959968328476 0  -0.01684099994599819 0.09531299769878387 0  -0.01425299979746342 0.08608999848365784 0  -0.01148399990051985 0.08015400171279907 0  -0.01052199956029654 0.08030600100755692 0  -0.01108200009912252 0.08102100342512131 0  -0.01071599964052439 0.08187700062990189 0  -0.01014100015163422 0.08116699755191803 0  -0.01527599990367889 0.07789699733257294 0  -0.01572900079190731 0.0769990012049675 0  -0.01475599966943264 0.07716000080108643 0  -0.01378200016915798 0.07732100039720535 0  -0.01423100009560585 0.07642599940299988 0  -0.01835699938237667 0.08068399876356125 0  -0.01782499998807907 0.0799499973654747 0  -0.01879999972879887 0.07979100197553635 0  -0.01977499946951866 0.07963299751281738 0  -0.02426400035619736 0.07225500047206879 0  -0.02483800053596497 0.07459499686956406 0  -0.02444499917328358 0.07546699792146683 0  -0.0226840004324913 0.02421800047159195 0  -0.02298000082373619 0.02480999939143658 0  -0.02318999916315079 0.02539500035345554 0  -0.02341599948704243 0.02602499909698963 0  -0.02250500023365021 0.0260390006005764 0  -0.01966599933803082 0.0238840002566576 0  -0.01876799948513508 0.02394899912178516 0  -0.0205680001527071 0.02378799952566624 0  -0.02208000048995018 0.02301100082695484 0  -0.01765800081193447 0.01826100051403046 0  -0.01728400029242039 0.01902399957180023 0  -0.01836000010371208 0.0186500009149313 0  -0.01693700067698956 0.01786099933087826 0  -0.01832599937915802 0.02309099957346916 0  -0.0165960006415844 0.
[...]
<PointData  Scalars="pressure"> 
<DataArray  type="Float64"  Name="pressure"  format="ascii">7.8730587146050746e-02  7.8500632287816730e-02  7.8670126408523861e-02  7.8448919375156800e-02  7.8851282668731454e-02  7.8561248115149390e-02  7.8304081138544729e-02  7.8113508145607302e-02  7.8016509159340316e-02  7.8421748185148715e-02  7.7927357721114185e-02  7.7940591635024398e-02  7.8132607220931585e-02  7.8152691386536494e-02  5.2482565244587415e-02  5.2212462652712725e-02  5.2916152256591055e-02  5.8094207227543257e-02  5.7621417050996229e-02  5.8218669798362828e-02  5.7958486084764130e-02  3.2744376810552187e-02  3.3763992503863721e-02  3.3551330208908936e-02  4.4602589026835338e-02  4.3769267954984585e-02  4.3403972314174900e-02  4.4978869030415022e-02  7.7272293539089640e-02  7.7361368937981484e-02  7.7020479083760876e-02  7.6673842835159989e-02  7.6931685549620391e-02  7.7094021063114943e-02  7.7454424301937247e-02  7.7537581011940651e-02  7.7178692865966680e-02  7.7611381935480131e-02  7.7476469239792636e-02  7.7934682392805613e-02  7.8193416535861565e-02  7.7936914183853997e-02  7.8231716726295489e-02  7.8614923058870620e-02  7.8839444769785619e-02  7.8804393743104495e-02  7.8590037136986715e-02  7.8547826593642275e-02  7.8309477136881342e-02  6.8188471659187547e-03  6.5558088518676621e-03  7.1303805605144590e-03  6.1690854047472994e-03  5.5616620855583557e-03  6.9660282276254887e-03  2.9306867211252714e-02  2.8290416108905529e-02  2.8505414302993082e-02  2.9976633417028210e-02  2.8873165998660216e-02  2.6545108165157965e-02  2.6141861557360653e-02  2.6115027798757157e-02  2.5733279767210602e-02  3.2088074400075904e-02  3.2653670071312417e-02  3.2119382862995739e-02  3.2316251814372698e-02  2.7667900117907485e-02  2.7491244564868351e-02  2.7849195633265138e-02  2.9068325609420485e-02  2.8519461060122306e-02  2.8499424803099211e-02  2.9589219229722036e-02  2.9569753428473466e-02  3.0128408433488844e-02  2.9945903638695651e-02  2.9861466926515690e-02  3.0467686237947354e-02  3.0090270074863049e-02  3.0611261330465055e-02  3.0680138107675087e-02  1.6948947518003448e-02  1.7130721629503617e-02  1.8653336147863287e-02  7.6923868091771314e-03  7.7648825850750169e-03  7.0615179200798116e-03  7.7938818025314299e-02  7.7754942065834734e-02  7.8108642461115096e-02  7.8270204363762044e-02  7.8851900925092602e-02  7.8884990202765862e-02  7.8973706645595096e-02  7.8755505430840644e-02  7.8706938889875094e-02  7.8614247491805414e-02  7.8164674158456876e-02  7.8461993771868410e-02  7.8250766055037585e-02  7.8294237296368405e-02  7.8026962868970165e-02  7.8516983186270387e-02  7.8341522116110965e-02  7.8731114619124631e-02  7.8569372385932618e-02  7.8483402477573627e-02  7.7875808844623709e-02  7.6024787629647497e-02  7.6117038855150032e-02  7.6112598347522084e-02  7.5183411374856679e-02  7.5298487557446059e-02  7.5503257350206229e-02  7.7640216887625291e-02  7.7105629067734632e-02  7.7426010726005620e-02  7.7349394737296046e-02  7.7499763302361538e-02  7.7168343052792715e-02  3.9084565496837172e-03  3.9116274773281987e-03  3.3287135871811232e-03  4.0635137903521140e-03  2.9834303459165129e-02  3.1053054689297251e-02  2.9034777532179069e-02  5.7211464789772085e-02  5.7238370944677520e-02  5.7138529131631831e-02  5.6368969021885755e-02  5.6333122630876246e-02  5.6234626565522840e-02  5.4748085257428802e-02  5.4412621007135301e-02  5.5188104301983607e-02  5.5481063905706215e-02  5.5742047465353765e-02  5.4804072007259105e-02  5.3921475549332458e-02  5.5081202378855491e-02  5.5303161758732067e-02  5.4562288288017034e-02  5.4799422351756215e-02  5.9991854138794235e-03  6.8610668527744403e-03  6.0441516473916414e-03  6.7751567560462847e-03  7.0598784975016912e-02  7.0094642591350953e-02  7.0113223561812266e-02  6.9623480316225742e-02  5.3930116875593979e-02  4.8519195112697394e-02  4.6826928875713048e-02  4.7435047476491257e-02  4.7958028926987369e-02  5.3422028618317123e-02  6.1321522234982336e-02  6.1688898387479381e-02  6.1893522923466428e-02  5.9431949651607266e-02  5.9705562957415970e-02  6.0475330464780555e-02  6.0804301166412632e-02  6.0028090553519667e-02  6.1854139583414139e-02  6.1470255396502686e-02  5.8577323812989149e-02  5.7348558362284058e-02  5.6977073929991746e-02  5.6724923092363343e-02  5.7330626401279464e-02  5.6574106382440356e-02  5.6108072038505555e-02  5.5655642346631486e-02  5.6498957290669234e-02  5.5618432479769539e-02  5.5226808945579221e-02  5.8728027286566453e-02  4.2179978653718996e-02  4.3019784674595100e-02  3.4649046461387528e-02  3.5191459497660782e-02  3.5382308705919012e-02  3.5930518905132998e-02  3.6154260793548484e-02  3.2642643468078957e-02  3.2143974063128113e-02  3.1583164248545917e-02  3.4620548572913253e-02  3.5622171522817721e-02  3.3912453480832161e-02  3.4325208599725612e-02  3.3240994775785300e-02  3.2808435461904574e-02  4.3261396548580827e-02  4.4554006954044011e-02  4.3055285240912081e-02  4.1427471213842715e-02  4.2718694849920330e-02  4.4067688467045597e-02  4.4326360922149990e-02  4.5329682589787999e-02  4.6191605411810763e-02  5.4805522478176813e-02  5.2956720226732694e-02  5.2080690404061651e-02  7.7204236182343733e-02  7.6947503175078355e-02  7.6713873292591939e-02  7.6440769888472745e-02  7.6586011021052114e-02  7.7795506503020598e-02  7.7878092643946156e-02  7.7703147398500552e-02  7.7727361481353313e-02  7.9177134104293390e-02  7.9148576126248732e-02  7.9124045281067285e-02  7.9183439572207762e-02  7.8216485458386817e-02  7.8336900418231173e-02  7.8039540654494186e-02  7.8027350110365171e-02  7.5994705051838460e-02  7.5917876953320737e-02  7.5834798033083434e-02  7.7946142561667653e-02  7.7257123508916781e-02  7.6943201588423674e-02  7.7134584532009914e-02  7.7034818433452640e-02  7.7374890916802733e-02  7.6647215048616796e-02  7.6385360461312335e-02  7.6563110171961365e-02  2.9893767654890760e-03  1.6366068779089154e-03  3.0533729399115088e-03  5.6294091408711144e-03  5.4965954054158259e-03  6.0705769328603769e-03  8.2434078126944459e-03  8.9178590541463872e-03  8.7935817036199487e-03  6.9006698353884319e-03  9.8711151288038944e-03  1.1435451731127149e-02  1.0084756179773644e-02  8.6768412206352820e-03  8.8452594736537823e-03  7.9051261473336350e-03  7.5069739561155705e-03  6.7132417467976246e-03  7.3991653569639090e-03  6.6664419435815050e-03  6.0545916369328925e-03  7.2672038882753490e-03  7.9462311607989677e-03  9.0688046284090225e-03  9.8343439457538456e-03  8.7148798667291087e-03  6.9070873252926272e-03  3.1220509583226908e-02  3.1736173352334605e-02  3.1195413632703343e-02  2.8976883287883049e-02  2.9742775782800039e-02  2.9984564781396675e-02  3.0641947875520412e-02  2.7491751239897711e-02  2.7447541954816055e-02  2.7977090024254723e-02  2.8000080904223703e-02  2.6555857499060979e-02  2.4815259495423739e-02  2.4823527905818897e-02  2.4624857940798144e-02  2.5691814329749318e-02  3.1609859044870944e-02  2.8767076649693749e-02  2.9218925460397258e-02  2.8946365636362246e-02  2.8513290138768244e-02  2.8694522748048588e-02  2.7860445754710202e-02  2.8319298895588825e-02  2.8286616459167632e-02  2.7850706065022886e-02  2.7410244986623564e-02  2.7521882278375303e-02  2.6817779767430553e-02  2.9917192950450436e-02  3.0263729695047373e-02  3.0643143116982470e-02  3.1214074715642647e-02  2.9019302136342760e-02  2.7934912199893122e-02  2.7405054228426044e-02  2.8753841249115404e-02  2.9275826001315852e-02  2.8785890297518216e-02  2.8840991172162746e-02  2.8296744246073115e-02  2.9021844489975801e-02  2.9545998517849777e-02  2.8960654191907680e-02  3.0142810574196929e-02  2.8908031277067665e-02  2.8407672966459838e-02  2.9429607740916949e-02  2.9167341883715853e-02  3.0373648779892175e-02  3.0541971131547607e-02  2.9488887611605150e-02  2.5483999691821437e-02  2.5208742756549933e-02  2.5630214494596057e-02  2.5376467048301651e-02  2.4540749659468210e-02  2.4572910681374800e-02  2.4622471129568776e-02  2.4590524180239458e-02  2.8966173179950660e-02  2.8951728515888408e-02  2.9306542188418168e-02  2.8942178434858457e-02  2.8878709853257561e-02  2.8573171445366974e-02  2.8668110668512870e-02  2.8491159705469699e-02  2.8689732907690491e-02  2.8542750336984411e-02  3.3334835331761216e-02  3.3134699767342991e-02  3.3041496046195301e-02  3.3490319961009180e-02  3.3626886522143379e-02  3.1274232345459903e-02  3.0927057811454026e-02  3.0721750173135290e-02  2.7994103512904520e-02  2.7567366768817849e-02  2.8346200008205757e-02  2.5757059089575419e-02  2.6323910411178309e-02  2.6093094163089241e-02  1.4363024848293757e-02  1.6019335013933982e-02  1.5535968288945065e-02  1.3769896567618688e-02  1.5031997680413091e-02  1.6764027123117236e-02  7.9796668066846078e-03  8.4885797793257424e-03  8.2503575960106695e-03  8.3962182204061452e-03  7.7333635794282094e-03  1.1357664978720384e-02  1.0949763504562178e-02  1.0340655406837341e-02  3.2296389198817242e-02  3.3139442931190963e-02  3.4369591583703153e-02  4.1926971709551994e-02  4.0684765558066868e-02  4.2789385925974852e-02  4.1552957323280827e-02  4.7763518286465453e-02  4.6039982269217961e-02  4.6850460110115170e-02  7.5956842659366655e-02  7.5862513388601394e-02  7.5896044634335316e-02  2.7871664600549746e-02  2.8694321276026571e-02  2.9334065860715401e-02  2.5204966633015181e-02  2.5836068875220941e-02  2.4672517378992825e-02  2.3547145144959376e-02  2.4203860300126761e-02  1.4891230532175266e-02  1.3054730991435342e-02  1.3911036846636800e-02  1.2398271458411467e-02  2.4710582480238854e-02  2.4794374632162781e-02  2.6230981350349240e-02  2.4610147766457317e-02  2.3213586499989117e-02  2.3015244768457052e-02  2.4428330249388574e-02  2.6034253080597276e-02  2.4217216826359311e-02  2.0067295208013026e-02  2.1098316194631719e-02  2.2281302516763316e-02  1.9165568337099797e-02  2.1580595384722085e-02  2.0041394505085412e-02  2.1692144771195378e-02  2.5186027081660511e-02  2.4219535563211322e-02  2.4223714066786885e-02  1.1495679217404174e-02  1.1028814078668070e-02  9.8239520967425119e-03  9.4307911101999195e-03  1.4582553100387568e-02  1.3261200504293431e-02  1.0772149199103652e-02  1.2431129202930758e-02  1.5385429978448798e-02  1.8899686573924560e-02  2.2304858270368055e-02  2.3704472967019184e-02  2.2065814574788081e-02  2.0624913869159468e-02  2.0191455162147869e-02  6.4317051853676711e-03  6.6407463451756627e-03  7.0610166512705365e-03  6.4736441839385725e-03  7.2946906985356698e-03  7.3572352699587448e-03  5.2368223977795848e-03  5.2225612166653581e-03  5.7537464866138600e-03  7.8935230682930776e-02  7.9145511953479145e-02  7.9067573278667647e-02  7.9103201799906153e-02  7.8690828342160860e-02  7.8712470765764514e-02  7.8575177682047068e-02  7.8272693373225025e-02  7.8396916086797552e-02  7.8480593401120582e-02  7.8426055580707699e-02  7.8308722478167961e-02  7.6083038475337747e-02  7.6252567451858974e-02  7.6231789324141694e-02  7.6028402542359333e-02  7.6188289863574898e-02  7.6259815352836269e-02  7.6086707857320329e-02  7.6113564658456895e-02  7.5922099417368868e-02  7.5915162280621035e-02  7.4940063988513564e-02  7.5265526649975489e-02  7.5243520397351757e-02  7.5601756255248481e-02  7.5260278773959619e-02  7.4893117954080504e-02  7.7704702843616302e-02  7.7375719649396976e-02  5.9021478347100448e-02  5.9301804794141239e-02  6.0242350045366176e-02  5.9801751656717826e-02  6.0178556312792737e-02  6.2580040863819089e-02  6.4595519481551081e-02  6.4367671668529344e-02  6.3680570258398697e-02  6.2687795507514660e-02  6.4112243326070559e-02  3.4860778523495436e-02  3.2487971254077673e-02  3.3342271053710702e-02  7.0205571764252583e-03  3.9735744133337844e-02  4.0722346885616698e-02  4.2103961932038615e-02  4.0630348305977651e-03  4.8455191171733200e-03  4.8551301799680492e-03  4.6746980173751652e-03  4.7960174433422254e-03  5.3238966045004825e-02  5.4004910734418939e-02  5.3080749669216734e-02  5.4176294551841433e-02  5.4312182395472919e-02  5.3038874965338809e-02  5.3700305324459387e-02  4.3164971046320041e-02  4.5300075438449557e-02  4.3478401140354422e-02  4.7267533582040028e-02  4.6967420464532041e-02  4.5672866647828617e-02  5.1567491114003328e-02  5.2844080453241127e-02  5.2168822204297888e-02  5.1754459288125255e-02  5.0560354057288676e-02  5.0229854330258290e-02  5.1322577141716674e-02  4.8308435471187627e-02  4.9096723678367184e-02  4.7233977184841652e-02  4.5181465488793301e-02  4.5959094077267011e-02  4.3785159061178108e-02  4.8968119097364274e-02  4.9139277164210751e-02  4.7855553596904736e-02  4.4265501248815106e-02  4.6776290286827026e-02  2.1330086617726857e-02  1.9990528756848199e-02  2.0457914232890975e-02  3.3044361771427909e-02  3.3948543721397405e-02  3.5149367354025275e-02  3.3550842865611379e-02  1.8267191270572518e-02  1.7124031282589942e-02  1.8430001569963009e-02  1.7050008966658741e-02  1.8191204475169538e-02  1.9312780763766510e-02  3.5833343628823872e-02  3.8068057722928948e-02  3.5752386641324511e-02  3.3763632166045651e-02  3.6030059770863251e-02  2.9999071709250924e-02  2.9802233748777808e-02  2.8295262829886227e-02  3.3609369380584932e-02  3.1672394847116633e-02  2.0457830323588496e-02  1.9221287969613410e-02  1.9908995009587566e-02  1.9863456834240501e-02  2.1154886951298860e-02  2.1810065615036189e-02  1.7258001448845171e-02  1.8407974982120743e-02  1.7577706511058867e-02  1.2936274703893608e-02  1.2831037218567641e-02  1.2315825277016839e-02  1.8694866636762932e-02  1.9541904174096604e-02  5.7013452310286067e-02  5.4937938256880543e-02  5.5593041972954643e-02  5.5086566970629580e-02  5.4184149461592820e-02  5.5907919436388780e-02  5.5743615480348500e-02  5.5865105242521813e-02  5.6257103220663018e-02  5.5979954888991948e-02  5.5436879626477496e-02  5.6461701943555480e-02  5.6260473190656732e-02  5.6037184181358703e-02  5.5867131565121311e-02  5.4210377000584543e-02  5.3198875437172340e-02  5.1627767393801600e-02  5.0242455230437771e-02  5.0865932545034034e-02  5.6661126536533234e-02  5.6802930614077519e-02  5.4276684629771518e-02  5.5696218856592879e-02  6.0554319990439882e-03  6.9118015867019530e-02  6.9538896856687002e-02  6.9089165396551550e-02  6.8085165724184757e-02  6.8152610867682470e-02  6.8520316653709223e-02  6.8652499261169800e-02  7.1868703153654387e-02  7.1823007585122264e-02  7.2321184975478195e-02  7.2369403716830122e-02  7.1930074634216454e-02  7.1419059874639187e-02  7.3241588024835422e-02  7.3235891404221737e-02  7.3678914073028554e-02  7.2774617821519769e-02  7.3703607437094421e-02  7.3266922941581450e-02  7.4116479524599529e-02  7.4099481086718350e-02  4.6207741126554132e-02  4.5541219944029120e-02  4.4306501940528945e-02  5.0171468499075889e-02  4.9085474581598940e-02  5.0625931212385220e-02  5.1072970531701629e-02  5.1983155214632544e-02  4.9605765433831168e-02  5.2238693458098763e-02  5.0824389953844598e-02  5.1487544355458256e-02  2.8702903065749862e-02  2.8092259084882130e-02  2.9931047372162633e-02  3.9185212900307208e-02  4.0713286346050939e-02  4.1549645831413344e-02  6.2260845836337848e-02  6.2749706068377611e-02  6.2275843225457990e-02  6.1687418666700328e-02  6.1889212657341444e-02  6.1331132870821474e-02  6.1787397839909199e-02  6.2046118663997070e-02  6.1445878198303112e-02  5.8417011454990106e-02  5.8125965871366640e-02  5.8316072306044665e-02  5.8596267906843587e-02  5.8683051009195915e-02  5.8649242121474383e-02  5.8800973787241528e-02  5.9023362136379813e-02  5.9511926098915133e-02  5.9694082310117219e-02  5.9932075383671034e-02  6.0213092053897355e-02  6.0078264018864742e-02  5.9673456252325216e-02  5.9533433536518590e-02  5.9953309073210066e-02  6.5870807879605614e-02  6.5090409053208523e-02  6.5557607425962408e-02  6.4694513243643365e-02  5.3976825218673308e-02  5.4169268325811426e-02  5.2871812248000201e-02  5.3852049559650242e-02  5.5093577120766353e-02  6.2406427762766448e-02  6.0186230818826646e-02  5.9220380808505953e-02  5.6208225910009471e-02  5.5185022703160419e-02  5.5079448871370992e-02  5.6253614304600186e-02  5.5060203879051223e-02  5.6204593755549474e-02  5.7300189728434904e-02  5.8381698274566213e-02  5.8219677435676069e-02  5.7429265180337669e-02  5.8842656704227801e-02  5.3606257098265553e-02  5.3773980205828603e-02  5.2698913497522128e-02  2.4597755330015316e-02  2.5513780138923324e-02  2.3284443989945232e-02  5.4332602814479505e-02  5.3931348630275551e-02  5.6043873613228594e-02  5.7739608450610012e-02  3.7539808213734961e-02  3.7646659262373122e-02  3.6679818513089053e-02  3.7381627168329025e-02  3.8320863668418241e-02  4.1888356689537706e-02  4.3347546395081697e-02  3.9855803066613016e-02  3.9318743349537472e-02  4.0178706367083393e-02  4.2477835375703279e-02  3.9316580820837714e-02  3.8519322642296169e-02  3.9052720158917899e-02  4.0969270870857638e-02  4.1867543105267975e-02  3.2908705270330137e-02  3.3345698435609659e-02  3.3580168282089998e-02  3.3772997104074734e-02  3.4090908680678288e-02  3.4458810509192896e-02  3.4822052240719319e-02  3.5590101200613102e-02  3.5046401888761319e-02  3.5810293774720753e-02  3.5567029379786480e-02  3.6355183950222525e-02  3.3009220081249263e-02  3.3124854969470673e-02  2.7403227777781241e-02  2.8414967681557695e-02  2.7896750137649237e-02  2.6926514566609678e-02  3.3570606611268358e-02  3.2231320779789366e-02  3.2565237696725889e-02  2.7403212290597757e-02  2.8812991298511927e-02  2.8041877796378182e-02  2.9443218205289400e-02  2.8021289108041171e-02  3.1224528537385512e-02  2.9357152152671481e-02  2.8891664725874424e-02  2.9791903592810937e-02  3.2466236426747654e-02  3.0253685256341704e-02  3.2199444280131689e-02  4.4633352121819479e-02  4.3306500498777711e-02  4.4355734031923673e-02  4.5790689821995779e-02  4.5589703159101561e-02  2.4242428538276423e-02  2.6549826893066574e-02  4.7030447756420922e-02  4.7112828223789822e-02  4.6819513481676692e-02  5.0140747851808269e-02  5.0351325689677096e-02  4.9276400663993934e-02  5.3801360479267875e-02  5.3155898700594818e-02  5.2855044583396689e-02  4.3015775026484550e-02  4.6531319604636301e-02  4.5603782803244675e-02  4.6812733069701545e-02  5.3252682667291815e-02  5.3626300526271084e-02  5.1682774464300828e-02  5.0861905385385958e-02  5.1476247158284465e-02  7.6235282149769462e-02  7.6147504008532457e-02  7.5873478084185084e-02  7.5964115543374150e-02  7.5851762563705488e-02  7.8909667659421479e-02  7.9012008960684429e-02  7.9013678760515627e-02  7.9094367931850790e-02  7.8790832239322608e-02  7.8925168903538415e-02  7.8338851524382302e-02  7.3939543217415638e-02  7.4023631553296235e-02  7.3600001512728580e-02  7.4340415260082088e-02  7.4657227246172617e-02  7.4968686302571724e-02  7.5019830890198841e-02  7.5959975802112570e-02  7.6021115005384193e-02  7.5693319541085435e-02  7.5605070741533498e-02  7.5353889736790608e-02  7.5254632918586417e-02  7.5886636184480299e-02  7.5464673371086935e-02  7.5007794566627137e-02  7.4645025895663408e-02  7.4895375736783967e-02  7.3151827839533015e-02  7.3516853880237695e-02  7.3875941700091416e-02  7.6806435515673815e-02  7.6879520133003448e-02  7.7711377264572917e-02  6.7082981112949538e-02  6.6264160033631572e-02  6.6403174670316797e-02  6.7157012243222333e-02  7.5715081508184290e-02  7.5639455847967593e-02  7.5697747615760036e-02  7.5576008450270724e-02  7.5421182521845070e-02  7.5864497273432904e-02  7.5949900381032304e-02  7.4786830174515248e-02  7.4410737263933838e-02  7.4185893596439761e-02  7.3953253244782149e-02  7.3733093608877864e-02  7.5302803097049370e-02  7.5125250226687645e-02  7.4949502830352899e-02  7.4784055784187689e-02  7.7022160158442834e-02  7.7371573891217640e-02  7.7025603346057112e-02  7.6698881479499492e-02  7.7010500649356953e-02  7.6985527259566394e-02  7.6817678626021069e-02  7.7113319210532563e-02  7.6431260926895089e-02  7.6435429490097712e-02  7.6412435309382951e-02  7.6899297259036992e-02  7.7306463659215396e-02  7.6358080279759030e-02  7.6466904705687400e-02  7.6562166527112202e-02  7.6326436698430061e-02  7.7711146269411696e-02  7.7783341167579623e-02  7.7603475812583103e-02  7.6717850920782107e-02  7.6792942706080627e-02  7.6472598536877281e-02  1.6834735042144987e-03  0.000000000