<?xml version="1.0"?>
<VTKFile type="UnstructuredGrid"  version="0.1"  >
<UnstructuredGrid>
<Piece  NumberOfPoints="6340" NumberOfCells="12376">
<Points>
<DataArray  type="Float64"  NumberOfComponents="3"  format="ascii">-0.01938199996948242 0.02081399969756603 0  -0.01998800039291382 0.02145100012421608 0  -0.02023000083863735 0.02047999948263168 0  -0.02070399932563305 0.02117599919438362 0  -0.01962400041520596 0.01989799924194813 0  -0.01920799911022186 0.02168500050902367 0  -0.01964000053703785 0.02239999920129776 0  -0.0191859994083643 0.02321900054812431 0  -0.02003699913620949 0.02310200035572052 0  -0.01876199990510941 0.02240999974310398 0  -0.009092999622225761 0.01767800003290176 0  -0.009693999774754047 0.01858700066804886 0  -0.0100299995392561 0.01765000075101852 0  -0.01063700020313263 0.01860000006854534 0  -0.02414399944245815 0.07211700081825256 0  -0.02503300085663795 0.07241900265216827 0  -0.0251850001513958 0.07165999710559845 0  -0.02450300008058548 0.0658859983086586 0  -0.02511700056493282 0.06650400161743164 0  -0.02527900040149689 0.06563500314950943 0  -0.02598999999463558 0.06597000360488892 0  -0.01188400015234947 0.08427999913692474 0  -0.01273399963974953 0.08408000320196152 0  -0.01218700036406517 0.08351200073957443 0  -0.01858399994671345 0.07831099629402161 0  -0.01765299960970879 0.07855600118637085 0  -0.0181450005620718 0.07916200160980225 0  -0.01809800043702126 0.0776979997754097 0  -0.02150800079107285 0.02438499964773655 0  -0.02072199992835522 0.024575000628829 0  -0.02102899923920631 0.0252739991992712 0  -0.0212980005890131 0.02598500065505505 0  -0.0218299999833107 0.02509200014173985 0  -0.02023500017821789 0.02546899951994419 0  -0.01990900002419949 0.02470600046217442 0  -0.01908300071954727 0.02481899969279766 0  -0.01942300051450729 0.02558499947190285 0  -0.02119800075888634 0.02366700023412704 0  -0.0220550000667572 0.02351799979805946 0  -0.02157999947667122 0.02246000058948994 0  -0.02115499973297119 0.02183599956333637 0  -0.02086200006306171 0.022902000695467 0  -0.02042300067842007 0.0221829991787672 0  -0.01632199995219707 0.02210500091314316 0  -0.01682000048458576 0.02123099938035011 0  -0.01590199954807758 0.02119999937713146 0  -0.01717000082135201 0.02222900092601776 0  -0.0180089995265007 0.02222800068557262 0  -0.01753599941730499 0.02310699969530106 0  0.041143998503685 0.07633800059556961 0  0.04081499949097633 0.07550899684429169 0  0.04208000004291534 0.07557500153779984 0  0.04405200108885765 0.08618699759244919 0  0.0448249988257885 0.08640100061893463 0  0.04373300075531006 0.08690299838781357 0  0.02615999989211559 0.09497900307178497 0  0.02634299919009209 0.09424500167369843 0  0.02723499946296215 0.09448499977588654 0  0.02517200075089931 0.09543199837207794 0  0.02534900046885014 0.09454800188541412 0  -0.007050999905914068 0.09226000308990479 0  -0.006200000178068876 0.09250699728727341 0  -0.006785000208765268 0.09305399656295776 0  -0.005921000149101019 0.09330599755048752 0  -0.01730299927294254 0.09116300195455551 0  -0.01760599948465824 0.09052000194787979 0  -0.01664000004529953 0.09079699963331223 0  -0.01818500086665154 0.09115099906921387 0  -0.01448099967092276 0.09666100144386292 0  -0.01476300042122602 0.09734400361776352 0  -0.01520099956542253 0.0966389998793602 0  -0.01044300012290478 0.09072600305080414 0  -0.009657000191509724 0.09090500324964523 0  -0.01023500040173531 0.09146200120449066 0  -0.01123599987477064 0.09055700153112411 0  -0.01065799966454506 0.09000100195407867 0  -0.01145000010728836 0.08983200043439865 0  -0.0137550001963973 0.09201599657535553 0  -0.01429400034248829 0.09255199879407883 0  -0.01458500046283007 0.09182800352573395 0  -0.01260999962687492 0.09093599766492844 0  -0.01342799980193377 0.09076400101184845 0  -0.01284299977123737 0.09021700173616409 0  0.01168399956077337 0.08957300335168839 0  0.01271899975836277 0.08944500237703323 0  0.01210999954491854 0.09016299992799759 0  0.00774300005286932 0.07782699912786484 0  0.008205000311136246 0.07701899856328964 0  0.00877700001001358 0.0776979997754097 0  -0.008849999867379665 0.01675999909639359 0  -0.008086999878287315 0.0169220007956028 0  -0.009662000462412834 0.01669600047171116 0  -0.01051000040024519 0.01662899926304817 0  -0.01391999982297421 0.01679999940097332 0  -0.01411399990320206 0.01791699975728989 0  -0.01470599975436926 0.01704199984669685 0  -0.01336100045591593 0.01768199913203716 0  -0.01335200015455484 0.01873300038278103 0  -0.01258799992501736 0.01780799962580204 0  -0.01281800027936697 0.02168699912726879 0  -0.01329800020903349 0.02074199914932251 0  -0.01242799963802099 0.02072899974882603 0  -0.012020000256598 0.01982299983501434 0  -0.01147800032049417 0.02064800076186657 0  -0.01291100028902292 0.01974299922585487 0  -0.01369099970906973 0.02175500057637691 0  -0.01503599993884563 0.02104599960148335 0  -0.01543200016021729 0.02203099988400936 0  -0.0145650003105402 0.02189300023019314 0  -0.0101290000602603 0.01953200064599514 0  -0.01147099956870079 0.03078199923038483 0  -0.01196799986064434 0.0299260001629591 0  -0.01105600036680698 0.02981700003147125 0  -0.006428000051528215 0.02917899936437607 0  -0.006856000050902367 0.03016499988734722 0  -0.007354000117629766 0.0293160006403923 0  -0.009227000176906586 0.0195349995046854 0  -0.006940000224858522 0.01879099942743778 0  -0.007850999943912029 0.0186999998986721 0  -0.007158999796956778 0.01794200018048286 0  -0.007263000123202801 0.01709599979221821 0  -0.00634999992325902 0.01728999987244606 0  0.04601600021123886 0.0828000009059906 0  0.04675199836492538 0.0822329968214035 0  0.04668200016021729 0.08332300186157227 0  0.04566099867224693 0.08356799930334091 0  0.01437199953943491 0.05753599852323532 0  0.01532499957829714 0.05729300156235695 0  0.01493899989873171 0.05823599919676781 0  0.02610800042748451 0.04086599871516228 0  0.02648100070655346 0.03977600112557411 0  0.02696800045669079 0.04039900004863739 0  0.02840599976480007 0.04451800137758255 0  0.02921999990940094 0.0437140017747879 0  0.02960599958896637 0.04436400160193443 0  0.02844700030982494 0.04785799980163574 0  0.02754499949514866 0.04809600114822388 0  0.02797700092196465 0.04710999876260757 0  0.02749500051140785 0.04640800133347511 0  0.02844999916851521 0.04611999914050102 0  0.02704799920320511 0.04738299921154976 0  0.02662299945950508 0.04835600033402443 0  0.02652500011026859 0.0467119999229908 0  0.02595500089228153 0.04607199877500534 0  0.0255539994686842 0.04700300097465515 0  0.02497499994933605 0.04635399952530861 0  0.04346799850463867 0.08500800281763077 0  0.04239499941468239 0.08514200150966644 0  0.04301600158214569 0.08443299680948257 0  0.04196599870920181 0.08454000204801559 0  0.005475999787449837 0.02283300086855888 0  0.006161000113934278 0.02326700091362 0  0.005524999927729368 0.02393300086259842 0  0.006264999974519014 0.02425399981439114 0  0.02458400093019009 0.04728399962186813 0  0.02091200090944767 0.04995099827647209 0  0.02052400074899197 0.05088900029659271 0  0.01994900032877922 0.05020799860358238 0  0.021484000608325 0.05062999948859215 0  0.02714999951422215 0.04906800016760826 0  0.01568200066685677 0.03365499898791313 0  0.01487100031226873 0.03356700018048286 0  0.01520999986678362 0.03263099864125252 0  0.01094700023531914 0.03931799903512001 0  0.01010399963706732 0.03935699909925461 0  0.01048300042748451 0.03842400014400482 0  0.009638999588787556 0.03846300020813942 0  0.009259999729692936 0.03939500078558922 0  0.00917499978095293 0.03756900131702423 0  0.01001899968832731 0.03753099963068962 0  0.01056800037622452 0.04025200009346008 0  -0.02590199932456017 0.06679199635982513 0  -0.02487399987876415 0.0673149973154068 0  -0.02582200057804585 0.06754499673843384 0  -0.02420900017023087 0.0667790025472641 0  -0.02387100085616112 0.06761199980974197 0  -0.02289899997413158 0.06790599972009659 0  -0.02337699942290783 0.06851500272750854 0  -0.02232900075614452 0.06732600182294846 0  -0.02194599993526936 0.06818199902772903 0  -0.02246000058948994 0.0687830001115799 0  -0.02604199945926666 0.06511499732732773 0  -0.01771100051701069 0.0800039991736412 0  -0.01863499917089939 0.07976599782705307 0  -0.01744999922811985 0.08783499896526337 0  -0.01830600015819073 0.08767099678516388 0  -0.01774800010025501 0.08709699660539627 0  -0.01860000006854534 0.08693700283765793 0  -0.01804699935019016 0.08635299652814865 0  -0.01673400029540062 0.09012000262737274 0  -0.01592699997127056 0.09028200060129166 0  -0.01575399935245514 0.09097400307655334 0  -0.01304799970239401 0.08330400288105011 0  -0.01062200032174587 0.07820100337266922 0  -0.009695000015199184 0.07844600081443787 0  -0.01019600033760071 0.07904499769210815 0  -0.009806999936699867 0.07986900210380554 0  -0.009290999732911587 0.07927899807691574 0  -0.01435100007802248 0.07568100094795227 0  -0.01481399964541197 0.07479000091552734 0  -0.01388000044971704 0.07504799962043762 0  -0.01294500008225441 0.07530499994754791 0  -0.01339800003916025 0.07441599667072296 0  -0.01716399937868118 0.07794799655675888 0  -0.01669199950993061 0.07732199877500534 0  -0.01763200014829636 0.07706599682569504 0  -0.0185720007866621 0.07681199908256531 0  -0.02300200052559376 0.06938599795103073 0  -0.02355499938130379 0.07152300328016281 0  -0.0231660008430481 0.07238899916410446 0  -0.02230699919164181 0.02407800033688545 0  -0.02254999987781048 0.02462000027298927 0  -0.02271099947392941 0.02514700032770634 0  -0.02288400009274483 0.02571400068700314 0  -0.02206799946725368 0.02583399973809719 0  -0.01955899968743324 0.02395600080490112 0  -0.01872600056231022 0.02405899949371815 0  -0.02039800025522709 0.02382300049066544 0  -0.02181000076234341 0.02297299914062023 0  -0.01779000088572502 0.01839400082826614 0  -0.01741700060665607 0.01915499940514565 0  -0.01847000047564507 0.01878999918699265 0  -0.01709200069308281 0.01798900030553341 0  -0.01833100058138371 0.02321000024676323 0  -0.01669
[...]
<PointData  Scalars="pressure"> 
<DataArray  type="Float64"  Name="pressure"  format="ascii">4.2576562856670462e-02  4.2522213897836364e-02  4.2552727146422026e-02  4.2503333430965073e-02  4.2597815631512395e-02  4.2538690886583186e-02  4.2486888540612361e-02  4.2461577587814464e-02  4.2436791992349836e-02  4.2516789510955458e-02  4.3663831503103420e-02  4.3493601658549166e-02  4.3603650993138676e-02  4.3401026462735900e-02  2.5496001919671177e-02  2.5358447064650087e-02  2.5798953623068263e-02  2.8744004968499756e-02  2.8565012639598937e-02  2.8777112168598400e-02  2.8681315013405657e-02  1.5351680038512883e-02  1.5882241834108590e-02  1.5636729616599555e-02  2.0314698967917988e-02  1.9808791947423830e-02  1.9788757494131257e-02  2.0347521660287502e-02  4.2303601862273013e-02  4.2334084591490503e-02  4.2282650460794005e-02  4.2227077590454146e-02  4.2246157166616699e-02  4.2303964568710689e-02  4.2361181323901660e-02  4.2391001218818558e-02  4.2335921926878899e-02  4.2348845594862516e-02  4.2316568628521914e-02  4.2400776672748483e-02  4.2452936324645293e-02  4.2403185256139383e-02  4.2466160772378497e-02  4.2622408531654235e-02  4.2652369399456207e-02  4.2695380470704716e-02  4.2582910789331394e-02  4.2552731660391550e-02  4.2526215810274243e-02  1.2178823665500590e-02  1.0802305759006621e-02  1.2169786361011965e-02  2.1913161220579118e-02  2.2105065607793722e-02  2.2615241139239170e-02  2.5633605354335069e-02  2.4699014106045650e-02  2.6296102691761934e-02  2.4926582069911669e-02  2.3810408577348140e-02  1.3353158684308267e-02  1.2918525681408449e-02  1.3506701208930464e-02  1.3125081236880731e-02  1.7138181514292829e-02  1.7273906372023771e-02  1.7077822191662598e-02  1.7153641396827651e-02  1.6474451166290347e-02  1.6401552510440880e-02  1.6494710891078741e-02  1.4824861268058355e-02  1.4454969903545702e-02  1.4854440060850066e-02  1.5190946694463268e-02  1.4821787865241980e-02  1.5207911910618479e-02  1.6274795026872325e-02  1.6455931368598332e-02  1.6515582160430305e-02  1.5815133042246257e-02  1.6110660069896955e-02  1.5857593055021896e-02  1.6251299736179843e-03  1.9679644148056057e-03  2.3864829307101258e-03  7.7611546499070684e-03  8.6705286936455076e-03  7.8044712457866032e-03  4.3721508014675586e-02  4.3765040210128940e-02  4.3685875433715243e-02  4.3600610525281733e-02  4.3167620438729168e-02  4.3087625598190127e-02  4.3070014334493742e-02  4.3177707060653159e-02  4.3085563428974294e-02  4.3276704856052277e-02  4.2824264065174172e-02  4.2882754831402921e-02  4.2945518154469328e-02  4.3085541411933187e-02  4.3025355993211431e-02  4.3018104736092869e-02  4.2768082973189195e-02  4.2749429265956186e-02  4.2664077115394800e-02  4.2712744967784697e-02  4.3291497824532663e-02  4.2729701482734986e-02  4.2675310539625165e-02  4.2689354161318915e-02  4.2473965266596109e-02  4.2516812888346397e-02  4.2545716997301739e-02  4.3354254833645051e-02  4.3413359109737891e-02  4.3519393178146029e-02  4.3579853828090528e-02  4.3744050258539113e-02  4.3571140251845428e-02  1.9671167042697446e-02  1.9481340147578834e-02  2.0135912796087608e-02  2.0054269718558917e-02  1.6586723469345133e-02  1.7908279380245883e-02  1.6814793897787606e-02  4.0528807390662308e-02  4.0293864817087154e-02  4.0539800596878159e-02  4.1565900141976420e-02  4.1424290249099271e-02  4.1683646327288562e-02  4.1191490150122440e-02  4.0701054151838535e-02  4.1162038481423760e-02  4.1066453413754145e-02  4.1473847450691603e-02  4.0631384308761738e-02  4.0046858629051420e-02  4.0502941955475269e-02  4.0330876548126254e-02  3.9807977771110004e-02  3.9632007689627546e-02  2.0796655075758563e-02  2.0800453892894876e-02  2.0229209462623448e-02  2.0167609954978762e-02  4.2137551388380670e-02  4.2027675143532145e-02  4.2058146000113525e-02  4.1951287029172800e-02  3.8980767373704636e-02  3.3316249091347172e-02  3.1950376288701107e-02  3.1917878452356219e-02  3.3362527141806160e-02  4.0094796446437125e-02  3.9270186192703491e-02  3.9326889691579943e-02  3.9493250402707764e-02  3.5454287054833403e-02  3.5137800474771955e-02  3.6289075706287227e-02  3.6048953500705708e-02  3.4841028675618391e-02  3.6918212546033682e-02  3.7083778838777053e-02  3.4219104615111323e-02  2.8472981259237213e-02  2.8292684784651960e-02  2.8183853236572340e-02  2.8373085925043402e-02  2.7920143563989020e-02  2.7538935916218310e-02  2.7317293131377457e-02  2.7690568116335076e-02  2.7107261771168588e-02  2.6929172190424438e-02  2.9060915546553580e-02  1.9294827766919261e-02  1.9748497114097999e-02  1.7439186902854942e-02  1.7690689687072176e-02  1.7608742209112713e-02  1.7859783046819035e-02  1.7797054640230098e-02  1.7123341167869243e-02  1.6891226210817362e-02  1.6820568332353861e-02  1.6164748612118321e-02  1.5548211744116740e-02  1.4886526652184685e-02  1.5147750968508131e-02  1.4731791167038636e-02  1.4466170072931580e-02  1.8766086428447838e-02  1.9369673753145297e-02  1.8535110962423176e-02  1.7757451019047646e-02  1.8282766685940678e-02  1.9800470715636571e-02  1.9779004353285411e-02  2.0379494264730430e-02  2.0953069638901502e-02  2.6737278210371265e-02  2.5668606826242890e-02  2.5061803415549661e-02  4.2278307899484911e-02  4.2230160965024681e-02  4.2186997008766228e-02  4.2144011900908607e-02  4.2191130950991890e-02  4.2411658096595986e-02  4.2439304821181592e-02  4.2386598395786262e-02  4.2355164365283471e-02  4.2745789021505276e-02  4.2742923996100433e-02  4.2698882841485292e-02  4.2811515417147214e-02  4.2493312994590235e-02  4.2557302772009302e-02  4.2535359987120394e-02  4.2504037337534037e-02  4.2701141349383839e-02  4.2771504487189908e-02  4.2716182602482181e-02  4.2888211895982409e-02  4.2784789247247504e-02  4.2744135813832421e-02  4.2700042560983885e-02  4.2839590323878907e-02  4.2894375239169433e-02  4.2708849542812316e-02  4.2673317439122518e-02  4.2654614274237876e-02  2.0962667327853013e-02  2.1285496109987773e-02  2.1460254894242276e-02  1.8476402551572391e-02  1.9178192075675459e-02  1.9013823035327799e-02  1.4473769643343379e-02  1.4380693353636391e-02  1.3573573895358744e-02  1.1125498911679865e-02  2.3853814283399513e-02  2.4613554286894612e-02  2.3474545432526132e-02  2.2802613877935377e-02  2.3430798003529024e-02  2.3013991447361402e-02  2.0104543510935095e-02  1.9528262747118327e-02  1.9423362732451436e-02  1.8874830906760343e-02  2.1397518077805187e-02  2.2172439666163928e-02  2.2035516892101450e-02  2.2347388364371057e-02  2.2233700491579089e-02  2.1515866612444354e-02  2.1411400884753542e-02  2.3157407332495761e-02  2.2219660864604713e-02  2.1330431997010200e-02  2.2220856806371300e-02  2.3589741021109792e-02  2.2397318228838514e-02  2.4083617589905324e-02  1.4119927008301012e-02  1.4566149121510216e-02  1.4507267104902187e-02  1.4054053451653958e-02  1.2763185936478698e-02  1.1371506527366423e-02  1.0990686672504366e-02  1.0475649233506535e-02  1.3691919017094968e-02  1.7059326023075198e-02  1.6592455801783385e-02  1.6684891331504081e-02  1.6676768969732515e-02  1.6604106571911321e-02  1.6685696352584347e-02  1.6396050275991222e-02  1.6551639923447825e-02  1.6400918310191137e-02  1.6249385388690495e-02  1.1900626838613751e-02  1.2004785637352296e-02  1.1359541778570931e-02  1.4091814508979270e-02  1.4513212274511684e-02  1.4612483456340270e-02  1.6171259369934726e-02  1.4424277811923831e-02  1.4901795302787704e-02  1.4969071802294856e-02  1.6413888083357336e-02  1.6418511394124046e-02  1.6236063101398853e-02  1.6034624129797375e-02  1.6038807940511435e-02  1.5191484433393243e-02  1.5514939079538962e-02  1.5510106764049382e-02  1.5532010612796772e-02  1.5792384865765039e-02  1.5530385616965989e-02  1.6037953155634117e-02  1.6701964983812510e-02  1.6655620120113616e-02  1.6329637645280101e-02  1.5795299952183778e-02  1.3978588560773782e-02  1.3696337119232949e-02  1.3311184958540129e-02  1.2930951029441685e-02  1.4310502178005963e-02  1.3817800744228153e-02  1.4142197063673936e-02  1.4587989122313651e-02  1.7079430398031038e-02  1.6811324373586616e-02  1.6947025102214248e-02  1.7184625755304030e-02  1.6980544154970908e-02  1.7117989801570917e-02  1.7247650607647665e-02  1.7285471465447379e-02  1.7079054671493760e-02  1.6945706812238694e-02  1.8118458538383848e-02  1.7987811891101942e-02  1.9056567182561525e-02  1.7159549763976972e-02  1.7281712342657622e-02  1.6029853224166064e-02  1.6296415202133031e-02  1.5937314136228242e-02  1.3873573030885517e-02  1.3443403784287111e-02  1.3164877923800861e-02  1.2507165064657428e-02  1.2036738223585964e-02  1.2913103980663435e-02  4.0516620289437581e-03  4.6829830862985949e-03  3.8131493513562272e-03  3.2107203458465461e-03  3.0193780178662949e-03  3.7013195035278910e-03  9.7864713490830885e-03  1.0694281156704294e-02  1.0904938138435386e-02  9.5812995680893652e-03  1.0021931322654420e-02  1.4324504094259838e-02  1.3814442391595318e-02  1.3613118605753718e-02  1.9348489240769342e-02  1.9271425607319311e-02  2.0823333278686410e-02  2.9941211475793983e-02  2.8540598795618415e-02  3.0315703681825304e-02  2.8842651408963787e-02  3.0617168782490441e-02  2.9122513965120798e-02  2.9252107203499467e-02  4.2800163289053887e-02  4.2831553055563451e-02  4.2837603448313721e-02  1.5358875609853457e-02  1.5543412196837782e-02  1.5789662626078085e-02  1.4587410558806517e-02  1.4380360519911119e-02  1.4260173392698281e-02  1.4251225028258914e-02  1.3881671023279675e-02  4.9304795636868348e-03  5.7350337387595887e-03  5.2974592182200662e-03  4.8273910167585948e-03  1.6983345980309778e-02  1.7009187322886719e-02  1.8341596521763925e-02  1.6982318925355906e-02  1.5717965548218946e-02  1.5525497435266059e-02  1.6892152130672626e-02  1.8454687052517491e-02  1.6706807932040491e-02  1.3430601377909825e-02  1.4096759822461643e-02  1.5427427718575176e-02  1.2265211059736974e-02  3.6191570917039860e-03  2.7906213953418461e-03  3.7092931283136434e-03  7.2443882390865414e-03  6.5075496900635008e-03  6.0517971700499301e-03  2.0199100835197395e-03  1.3907107212817182e-03  1.7042669595180755e-03  1.1224430030790690e-03  2.3058904103225308e-03  2.4590966760542829e-03  8.7051860093315114e-04  1.2193722838301328e-03  1.3204012579567971e-03  2.7866451154186442e-03  4.8600423310586720e-03  5.4664732255269542e-03  4.3359771145060240e-03  3.7640846235059700e-03  2.9777746800544631e-03  7.0335216779381319e-03  7.9398177110978647e-03  7.0006808938624394e-03  6.2289029613722541e-03  6.2365754858304950e-03  8.8260032181877723e-03  6.8915969871332049e-03  6.6179301464851410e-03  7.6143064030341368e-03  4.2785274765339776e-02  4.2889866154194670e-02  4.2975114809813773e-02  4.2906064283649362e-02  4.2941173863488905e-02  4.3262578963004630e-02  4.3386560759360274e-02  4.3237600729700787e-02  4.3335226841652419e-02  4.3387031395250637e-02  4.3487048915522575e-02  4.3492999383397610e-02  4.2638408761806856e-02  4.2625946184918696e-02  4.2588802731870504e-02  4.2581256090147464e-02  4.2648536545702331e-02  4.2632096799823049e-02  4.2641523282762578e-02  4.2626203914625904e-02  4.2614379541361672e-02  4.2603157175167494e-02  4.2444768955996248e-02  4.2830679583633430e-02  4.2730865599825682e-02  4.2857023135577987e-02  4.2639408569815025e-02  4.2611586782604002e-02  4.3528914837392470e-02  4.3380547657697180e-02  2.9227544500960486e-02  2.9295119012906212e-02  2.9528471428259918e-02  2.9449183341752453e-02  2.9533982393589901e-02  3.1294021872489530e-02  3.3009460199528488e-02  3.2511024925343635e-02  3.3501578780675320e-02  3.2694182624986252e-02  3.4045636521576175e-02  2.7082855371155130e-02  2.5075672933995652e-02  2.5648704098260262e-02  1.0069953132571573e-02  3.0529580722967291e-02  3.1029194618947840e-02  3.2105084400061393e-02  1.9149613620775403e-02  1.7545705100283741e-02  1.7785661219457682e-02  1.8170906708286881e-02  1.8437634262473936e-02  4.0571119573967626e-02  4.1247079205896611e-02  4.0482415097049605e-02  4.1358127455971935e-02  4.1446222527439645e-02  4.0393855639408761e-02  4.0886415161386531e-02  3.2517294940291118e-02  3.4264582544685014e-02  3.2916663989662288e-02  3.5800935736952907e-02  3.5510093805180269e-02  3.4590238741228324e-02  3.8981226651324336e-02  3.9967209654636959e-02  3.9599937822866457e-02  3.9351796077476416e-02  3.8379584977804367e-02  3.8072354433725669e-02  3.8966803965491681e-02  3.6246993623523995e-02  3.7035770873746626e-02  3.5392188478151121e-02  3.3682911296979867e-02  3.4418652360407663e-02  3.2649024200454915e-02  3.7230969094922517e-02  3.7452005256384868e-02  3.6462360586392253e-02  3.3699195175247956e-02  3.5593684005562565e-02  1.5730808763982283e-02  1.5533674048132381e-02  1.5473712273015446e-02  2.1977718013650074e-02  2.2217220316235055e-02  2.3587956627403754e-02  2.0848463413255941e-02  1.4996991884237117e-02  1.5257728874320036e-02  1.5033176772908653e-02  1.5258918728909509e-02  1.4925642578730634e-02  1.4572928759101631e-02  1.5428961000722627e-02  1.5881632334080516e-02  1.5266616824632744e-02  1.5181963332588418e-02  1.5723673678840616e-02  1.4475881153696064e-02  1.4025894735954567e-02  1.3789330923726474e-02  1.4878188221707625e-02  1.4644000461097701e-02  1.4367606192055057e-02  1.4649472964907222e-02  1.4279486950805536e-02  1.4705254086309700e-02  1.4560213663707551e-02  1.4141480238804979e-02  1.5130062506495495e-02  1.4741959253323750e-02  1.5035935814407566e-02  1.1369723153772120e-02  1.1148765695055603e-02  1.0937155664708355e-02  1.5491114738315191e-02  1.5567220701141457e-02  4.0732514956452789e-02  4.1556498316853228e-02  4.1863628578639345e-02  4.1872377314862111e-02  4.1102468877890305e-02  4.1708507793105365e-02  4.1831743957734618e-02  4.1746685871909765e-02  4.1168570470305921e-02  4.1361418831149618e-02  4.1554087625779633e-02  4.0669409628752776e-02  4.0877387618652658e-02  4.0472681461155915e-02  4.0709660597456454e-02  3.8823630669655509e-02  3.8020499911437675e-02  3.4538192763782075e-02  3.3304434643983354e-02  3.3350988319634955e-02  4.0473149119896891e-02  4.0774718523937305e-02  3.9952077947028118e-02  4.0909560472608172e-02  1.9633382998190077e-02  4.1852127755955419e-02  4.1929136019213636e-02  4.1791267383448086e-02  4.1527670917816902e-02  4.1592919180342969e-02  4.1676367216525491e-02  4.1711451726394747e-02  4.2381289757960072e-02  4.2341531369275001e-02  4.2413467660273346e-02  4.2456142381840950e-02  4.2415513713831121e-02  4.2332682116306766e-02  4.2488478311648370e-02  4.2428455587080138e-02  4.2491582428694157e-02  4.2426035351978454e-02  4.2425571640902604e-02  4.2373089898312816e-02  4.2495899040175429e-02  4.2574886808009929e-02  3.1990006528232827e-02  3.2030762673787114e-02  3.0507582490348618e-02  3.6054981800987776e-02  3.4733800026918858e-02  3.5965679836070158e-02  3.5878169065117531e-02  3.7037028679518184e-02  3.4685269087535130e-02  3.9240665809730242e-02  3.8205300171267317e-02  3.8372366068813460e-02  1.9934277240221402e-02  1.9428354112958120e-02  2.0842566368061047e-02  2.8784050363171682e-02  2.9905732429812759e-02  3.0710676517551702e-02  3.9705243464238420e-02  3.9848355763621210e-02  3.9694642789340547e-02  3.9540754775689552e-02  3.9563291293123554e-02  3.9412897246997536e-02  3.9113125619766251e-02  3.9378685419675347e-02  3.9097497696179942e-02  3.9488509111625172e-02  3.9600010952938587e-02  3.9583321291187669e-02  3.9450184128432667e-02  3.9375355332813146e-02  3.9289889268844934e-02  3.9124841252369591e-02  3.9231940418668093e-02  3.9256573937481345e-02  3.9268130691780631e-02  3.9290838559335545e-02  3.9264840140473198e-02  3.9277568962667986e-02  3.9224204409657668e-02  3.9118082449845694e-02  3.9171328827169255e-02  3.9767956349499790e-02  3.9149557486071684e-02  3.9137865277804725e-02  3.8396732848527904e-02  3.1799650501983405e-02  3.2652147649447148e-02  3.1280096518439410e-02  3.1004397183532702e-02  3.2452635736209982e-02  3.9426844466347991e-02  3.6535940376412640e-02  3.5808882213336543e-02  3.3772484722709939e-02  3.3182388028724308e-02  3.1015406518367823e-02  3.2507561725916123e-02  3.1717613628929511e-02  3.3131983990965556e-02  3.3862674298585652e-02  3.4658675932759460e-02  3.5105003048427792e-02  3.3349268140657140e-02  3.3826619162800685e-02  2.5286428413374411e-02  2.5269106601043690e-02  2.4482675780486296e-02  1.0419216930415242e-02  1.0499359303835522e-02  1.0238584781645906e-02  2.6292880954980846e-02  2.6115833496799742e-02  2.7631923388466220e-02  2.8525815166468207e-02  1.7803227211664184e-02  1.7716117171166480e-02  1.7419343033480195e-02  1.7880085804146292e-02  1.8158574247850987e-02  1.8200387238961533e-02  1.8942788279892531e-02  1.8953836811945103e-02  1.8807708822308745e-02  1.9046674280282734e-02  1.9286991657304502e-02  1.8481887996429844e-02  1.8113452367902991e-02  1.8491003762765440e-02  1.8843686707264513e-02  1.9289732999089426e-02  1.7195243318278628e-02  1.7317992777009426e-02  1.7318682794623917e-02  1.7399996638339854e-02  1.7481511081411168e-02  1.7538657067470962e-02  1.7637855766944398e-02  1.7792966106550255e-02  1.7649026096334834e-02  1.7853154049415176e-02  1.7532568392634104e-02  1.7730330089141783e-02  1.5630742983754699e-02  1.7291215901038430e-02  1.1955370554971275e-02  1.2624019396081314e-02  1.2236988815171787e-02  1.1568229878354172e-02  1.4989943980096079e-02  1.4328902142572351e-02  1.4600819678138817e-02  1.2099426687730215e-02  1.2734148734653511e-02  1.2506971755317399e-02  1.3015868592140521e-02  1.2351412553268182e-02  1.3931900909947566e-02  1.3277033225929302e-02  1.3023079122906749e-02  1.3635121102320763e-02  1.5064833953017397e-02  1.3416428367112439e-02  1.4190807342236387e-02  1.9638374003937854e-02  1.9069389932954876e-02  1.9144608554230776e-02  1.9966979586005500e-02  1.9760769367705124e-02  1.0471018198057097e-02  1.0824432227535086e-02  2.0636743322824540e-02  2.0804729555768838e-02  2.0384419569798855e-02  2.3027150643351053e-02  2.3049232569221114e-02  2.2339107319681455e-02  2.5780207444689320e-02  2.5186801810015022e-02  2.5082721817917215e-02  1.9210497581557094e-02  2.0990777723168895e-02  2.0382910084253754e-02  2.0990717923382432e-02  2.5972020763898960e-02  2.6246131908564327e-02  2.4915654180436855e-02  2.4448440754702802e-02  2.4714300050888132e-02  4.2139540645995857e-02  4.2099615410970334e-02  4.2069043585421600e-02  4.2096889277409871e-02  4.2039151914569216e-02  4.2622406432838912e-02  4.2648553384977014e-02  4.2683215217258125e-02  4.2754099857633565e-02  4.2610372444088065e-02  4.2635590051413749e-02  4.2594228298038758e-02  4.1501400336727057e-02  4.1571565981670749e-02  4.1388420102299497e-02  4.1661048032050681e-02  4.1752380411121046e-02  4.1839466473907169e-02  4.1873249805960515e-02  4.2260006542147482e-02  4.2336240959205851e-02  4.2261162205876765e-02  4.2173956518082853e-02  4.2168235419005010e-02  4.2075328204132352e-02  4.2190233844123487e-02  4.2273175903719318e-02  4.2059277089695826e-02  4.1929521179242861e-02  4.1957742169680193e-02  4.1180883771691219e-02  4.1321638427953090e-02  4.1455682311115676e-02  4.2273925454648753e-02  4.2311057327808585e-02  4.2486730199878329e-02  3.7239729418056422e-02  3.6477205735439541e-02  3.6615243755621377e-02  3.7308290037279923e-02  4.2635146833315707e-02  4.2700100422459537e-02  4.2480060118890835e-02  4.2534315242095763e-02  4.2416952710649956e-02  4.2438421761763559e-02  4.2520996315666554e-02  4.2054494399477046e-02  4.1909183309658656e-02  4.1889595753798262e-02  4.1861638576440263e-02  4.1682146838674494e-02  4.2470914226979753e-02  4.2332997967161438e-02  4.2192341320068438e-02  4.2214158773525801e-02  4.2437025487687699e-02  4.2476419230386489e-02  4.2472712832428983e-02  4.2487109976309140e-02  4.2512597515331305e-02  4.2639974942292963e-02  4.2603944845492556e-02  4.2607961080511639e-02  4.2584228328194161e-02  4.2553699441731457e-02  4.2609615019670963e-02  4.2576465731113372e-02  4.2659462615647598e-02  4.2626757406439737e-02  4.2628089578975126e-02  4.2610821624054149e-02  4.2637964003294969e-02  4.2956536989666630e-02  4.3105144864859821e-02  4.2833088745449797e-02  4.2788967141510946e-02  4.2893685671360884e-02  4.2830859972289380e-02  2.0899596549846057e-02  2.087400228