<?xml version="1.0"?>
<VTKFile type="UnstructuredGrid"  version="0.1"  >
<UnstructuredGrid>
<Piece  NumberOfPoints="6340" NumberOfCells="12376">
<Points>
<DataArray  type="Float64"  NumberOfComponents="3"  format="ascii">-0.01957700029015541 0.02074499987065792 0  -0.02036399953067303 0.02145300060510635 0  -0.02057000063359737 0.02044999971985817 0  -0.0212200004607439 0.02128300070762634 0  -0.01979199983179569 0.01981999911367893 0  -0.01943900063633919 0.0216279998421669 0  -0.02002499997615814 0.02241400070488453 0  -0.01954399980604649 0.02321700006723404 0  -0.02058099955320358 0.02324100024998188 0  -0.01896099932491779 0.02234599925577641 0  -0.007859000004827976 0.01811300031840801 0  -0.008545000106096268 0.01894699968397617 0  -0.008871999569237232 0.01800600066781044 0  -0.009565999731421471 0.01888000033795834 0  -0.02587799914181232 0.0787540003657341 0  -0.02681099995970726 0.07930000126361847 0  -0.02698799967765808 0.07851699739694595 0  -0.02643699944019318 0.07216300070285797 0  -0.02706200070679188 0.07296799868345261 0  -0.02726400084793568 0.07208400219678879 0  -0.02800000086426735 0.07260999828577042 0  -0.01191200036555529 0.08931999653577805 0  -0.01281700003892183 0.08928900212049484 0  -0.01230600010603666 0.08850199729204178 0  -0.01970900036394596 0.08417099714279175 0  -0.01870100013911724 0.08421500027179718 0  -0.01915699988603592 0.08501499891281128 0  -0.01925499923527241 0.0833669975399971 0  -0.02252699993550777 0.0249869991093874 0  -0.0215659998357296 0.02496599964797497 0  -0.022019999101758 0.0258530005812645 0  -0.02242800034582615 0.02674400061368942 0  -0.02300000004470348 0.02588899992406368 0  -0.02105000056326389 0.02583600021898746 0  -0.02057499997317791 0.02494500018656254 0  -0.01956799998879433 0.0249210000038147 0  -0.02005999907851219 0.02580700069665909 0  -0.02206600084900856 0.02407700009644032 0  -0.02311999909579754 0.02416699938476086 0  -0.0224200002849102 0.02281999960541725 0  -0.02183699980378151 0.02207300066947937 0  -0.02157800085842609 0.02316899970173836 0  -0.02096899971365929 0.02231799997389317 0  -0.01604400016367435 0.02196500077843666 0  -0.01656300015747547 0.02108399942517281 0  -0.01550399977713823 0.02107599936425686 0  -0.01703000068664551 0.02207200042903423 0  -0.01803999952971935 0.0221170000731945 0  -0.0175429992377758 0.02299199998378754 0  0.04009599983692169 0.08246300369501114 0  0.03992199897766113 0.08158999681472778 0  0.0411360003054142 0.08186499774456024 0  0.04119699820876122 0.09365800023078918 0  0.04191400110721588 0.09402699768543243 0  0.04089900106191635 0.09453199803829193 0  0.02456500008702278 0.1026590019464493 0  0.02473600022494793 0.1017469987273216 0  0.02556400001049042 0.1021620035171509 0  0.0236469991505146 0.1031159982085228 0  0.02381299994885921 0.1020099967718124 0  -0.006568000186234713 0.09741900116205215 0  -0.00570600014179945 0.09750399738550186 0  -0.006275000050663948 0.09827800095081329 0  -0.005400999914854765 0.09837199747562408 0  -0.01703000068664551 0.09865699708461761 0  -0.0173799991607666 0.09796600043773651 0  -0.01637100055813789 0.09807500243186951 0  -0.01793700084090233 0.09884200245141983 0  -0.01391199976205826 0.1043630018830299 0  -0.01416699960827827 0.1052170023322105 0  -0.01464399974793196 0.1045249998569489 0  -0.01006999984383583 0.0965299978852272 0  -0.009263999760150909 0.09653399884700775 0  -0.009825999848544598 0.09732100367546082 0  -0.01088100019842386 0.09652499854564667 0  -0.01031799986958504 0.09573999792337418 0  -0.01112900022417307 0.09573700278997421 0  -0.01337500009685755 0.09882999956607819 0  -0.01389900036156178 0.0995820015668869 0  -0.01422599982470274 0.09880899637937546 0  -0.01225899998098612 0.0972990021109581 0  -0.01309899985790253 0.09729199856519699 0  -0.01252800039947033 0.09651300311088562 0  0.01113300025463104 0.09397999942302704 0  0.01209400035440922 0.09394499659538269 0  0.01152699999511242 0.09478600323200226 0  0.007495999801903963 0.07851699739694595 0  0.008051999844610691 0.07766599953174591 0  0.008456000126898289 0.07848100364208221 0  -0.007559999823570251 0.01724000088870525 0  -0.006736000068485737 0.01747200079262257 0  -0.008435999974608421 0.01710899919271469 0  -0.009349999949336052 0.01697199977934361 0  -0.01305000018328428 0.0168600007891655 0  -0.01332100015133619 0.01794200018048286 0  -0.01393800042569637 0.01704699918627739 0  -0.01248000003397465 0.01776400022208691 0  -0.01251200027763844 0.01878999918699265 0  -0.01164800021797419 0.01795000024139881 0  -0.01206200011074543 0.02171799913048744 0  -0.0125500001013279 0.02076099999248981 0  -0.01159000024199486 0.0208090003579855 0  -0.01111199986189604 0.01995900087058544 0  -0.0105579998344183 0.02080699987709522 0  -0.01207400020211935 0.01980900019407272 0  -0.01303800009191036 0.02172799967229366 0  -0.01450099982321262 0.02094700001180172 0  -0.01501599978655577 0.02191299945116043 0  -0.0140190003439784 0.021807000041008 0  -0.009053000248968601 0.01982999965548515 0  -0.0110080000013113 0.03071199916303158 0  -0.01152000017464161 0.02984100021421909 0  -0.01049800030887127 0.02979400008916855 0  -0.005427999887615442 0.02953499928116798 0  -0.005929999984800816 0.0304579995572567 0  -0.006436000112444162 0.02958899922668934 0  -0.008077999576926231 0.01990900002419949 0  -0.005563999991863966 0.01939900033175945 0  -0.006552000064402819 0.01922100037336349 0  -0.005766999907791615 0.0185529999434948 0  -0.00584599981084466 0.01772299967706203 0  -0.004860000219196081 0.01799999922513962 0  0.04322699829936028 0.08975599706172943 0  0.04412399977445602 0.08930999785661697 0  0.04371500015258789 0.09039200097322464 0  0.04269599914550781 0.09051699936389923 0  0.01645700074732304 0.05931299924850464 0  0.01748399995267391 0.05925200134515762 0  0.01700299978256226 0.06012900173664093 0  0.03014699928462505 0.04479999840259552 0  0.03063100017607212 0.04376500099897385 0  0.03108200058341026 0.04451199993491173 0  0.03211800009012222 0.04904799908399582 0  0.03302299976348877 0.04840299859642982 0  0.03333000093698502 0.04914899915456772 0  0.03175799921154976 0.05244899913668633 0  0.03083699941635132 0.05251500010490417 0  0.03138399869203568 0.05160199850797653 0  0.03098800033330917 0.05077999830245972 0  0.0319719985127449 0.05069300159811974 0  0.03042699955403805 0.05167900025844574 0  0.02988900057971478 0.05258100107312202 0  0.02998599968850613 0.05088099837303162 0  0.0294829998165369 0.05010199919342995 0  0.02897799946367741 0.05096599832177162 0  0.02845899946987629 0.05017299950122833 0  0.04065699875354767 0.09208200126886368 0  0.03965999931097031 0.09212099760770798 0  0.04023800045251846 0.09129399806261063 0  0.03926299884915352 0.09130100160837173 0  0.008321000263094902 0.02491999976336956 0  0.009084999561309814 0.02540400065481663 0  0.008322999812662601 0.02598400041460991 0  0.009157000109553337 0.0263650007545948 0  0.02796499989926815 0.05103899911046028 0  0.02394399978220463 0.05296099931001663 0  0.0234570000320673 0.05383599922060966 0  0.02291899919509888 0.0530100017786026 0  0.02447099983692169 0.05378299951553345 0  0.03032599948346615 0.05341200157999992 0  0.01929499953985214 0.03609199821949005 0  0.01839799992740154 0.03594100102782249 0  0.01882600039243698 0.03506400063633919 0  0.01371399965137243 0.04119599983096123 0  0.01276300009340048 0.04117999970912933 0  0.01323799975216389 0.04030700027942657 0  0.01228700019419193 0.04029300063848495 0  0.01181199960410595 0.04116500169038773 0  0.01180799957364798 0.03940200060606003 0  0.01276199985295534 0.0394200012087822 0  0.01324000023305416 0.04206899926066399 0  -0.02788200043141842 0.07346999645233154 0  -0.02678100019693375 0.07377699762582779 0  -0.02777300029993057 0.07425600290298462 0  -0.02609599940478802 0.07304000109434128 0  -0.025713000446558 0.07385099679231644 0  -0.02467899955809116 0.07392799854278564 0  -0.02516400068998337 0.07469700276851654 0  -0.02409500069916248 0.07316599786281586 0  -0.02366399951279163 0.07399000227451324 0  -0.02418800070881844 0.07475999742746353 0  -0.02808699943125248 0.07171600311994553 0  -0.01860300078988075 0.08585000038146973 0  -0.01961099915206432 0.08581099659204483 0  -0.01740399934351444 0.0947749987244606 0  -0.018308000639081 0.09478399902582169 0  -0.01777400076389313 0.09398499876260757 0  -0.018673000857234 0.09399800002574921 0  -0.01815400086343288 0.093190997838974 0  -0.01650900021195412 0.09729500114917755 0  -0.01566999964416027 0.09730400145053864 0  -0.01545699965208769 0.09807900339365005 0  -0.01323700044304132 0.088468998670578 0  -0.01131500024348497 0.08206900209188461 0  -0.01031100004911423 0.08211299777030945 0  -0.01076900027692318 0.08291099965572357 0  -0.01024799980223179 0.08374500274658203 0  -0.00977999996393919 0.08295100182294846 0  -0.01542500033974648 0.08020500093698502 0  -0.01594999991357327 0.07934600114822388 0  -0.01495399978011847 0.07939500361680984 0  -0.0139570003375411 0.0794449970126152 0  -0.014465999789536 0.07858800143003464 0  -0.01824799925088882 0.08341199904680252 0  -0.01779799908399582 0.08259999752044678 0  -0.01880400069057941 0.08254999667406082 0  -0.01981200091540813 0.08250299841165543 0  -0.02474099956452847 0.07553800195455551 0  -0.02526699937880039 0.07796499878168106 0  -0.02483700029551983 0.07880699634552002 0  -0.02349100075662136 0.02487999945878983 0  -0.02384999953210354 0.02556999959051609 0  -0.02409899979829788 0.02624800056219101 0  -0.02436799928545952 0.02697799913585186 0  -0.02337099984288216 0.02681500092148781 0  -0.02007300034165382 0.02407599985599518 0  -0.01905700005590916 0.02404000051319599 0  -0.02109299972653389 0.02408000081777573 0  -0.02276000007987022 0.02347300015389919 0  -0.01750300079584122 0.01824299991130829 0  -0.01712100021541119 0.01900799944996834 0  -0.01830999925732613 0.01861999928951263 0  -0.01667499914765358 0.01785700023174286 0  -0.01850900053977966 0.02314200066030025 0  -0.016538999974727
[...]
<PointData  Scalars="pressure"> 
<DataArray  type="Float64"  Name="pressure"  format="ascii">1.1491375120624142e-02  1.1497132725222231e-02  1.1517047042125739e-02  1.1521253351030202e-02  1.1511198735348496e-02  1.1496245557871402e-02  1.1496105553636355e-02  1.1497094437042223e-02  1.1494739330286965e-02  1.1496929333388606e-02  1.1279480836502943e-02  1.1306508997993087e-02  1.1220529650141569e-02  1.1272609790685428e-02  1.9298213293902695e-02  1.9227317807178509e-02  1.9276034866979624e-02  1.8461164087897639e-02  1.8627219186886163e-02  1.8411384373130744e-02  1.8456023096045732e-02  1.5772567675605666e-02  1.6044372474552697e-02  1.6038053312944733e-02  1.8716009170935476e-02  1.8604745113315935e-02  1.8460860985668594e-02  1.8854361012261185e-02  1.1505022699024153e-02  1.1503264148063077e-02  1.1519545593623053e-02  1.1543949211142239e-02  1.1528383729469511e-02  1.1517589513977982e-02  1.1504450901662787e-02  1.1508415585965734e-02  1.1519096977804864e-02  1.1494137617829364e-02  1.1501467091348494e-02  1.1512367115560994e-02  1.1518714553263825e-02  1.1493898945083163e-02  1.1496445495014220e-02  1.1502558759203630e-02  1.1489970023249035e-02  1.1482772374489175e-02  1.1502132991058194e-02  1.1499034911825377e-02  1.1507244428115373e-02  4.9675020389846963e-04  1.3996352241063179e-04  1.0877593854969729e-03  2.4233030086189761e-03  2.3825215438248205e-03  2.6206614212717604e-03  6.3119663413390252e-03  5.0806326332878309e-03  5.4482077723846936e-03  7.3801541883850219e-03  5.8017360658636054e-03  1.7430981214707084e-02  1.7553193048843330e-02  1.7998582199696717e-02  1.8157126727253215e-02  1.7239929220315895e-02  1.7147550942169694e-02  1.7204555874916705e-02  1.7206388111354040e-02  1.9694335578617026e-02  1.9989310982570552e-02  1.9458753316030749e-02  1.6810623076248060e-02  1.6817637944573024e-02  1.7173974062601283e-02  1.6814998228273224e-02  1.6473011118036975e-02  1.6516088645647457e-02  1.7585874938086988e-02  1.7791223776946433e-02  1.7522145022719263e-02  1.7101420064714691e-02  1.7095428180852610e-02  1.6843698803699979e-02  1.1411296859226769e-02  1.0772408637150562e-02  1.1099943127085943e-02  4.3814598200479478e-03  3.4096137602107057e-03  3.7946707277672215e-03  1.1259315300097153e-02  1.1299418510166727e-02  1.1207072427610225e-02  1.1171884035097170e-02  1.1278547696554750e-02  1.1300853637118746e-02  1.1325317468410614e-02  1.1260659027258426e-02  1.1309354301060486e-02  1.1225590217500206e-02  1.1503738152254505e-02  1.1441087400618059e-02  1.1442432743910212e-02  1.1372777971344330e-02  1.1454387999138333e-02  1.1369790074551162e-02  1.1496644244405278e-02  1.1468505901550055e-02  1.1501982160920105e-02  1.1497920001588861e-02  1.1386500484611562e-02  1.2272875929391901e-02  1.2128869052462295e-02  1.2253532761318726e-02  1.2905241571667905e-02  1.2905277075633584e-02  1.2766750922439651e-02  1.1431436239364854e-02  1.1502875904496272e-02  1.1420504556133701e-02  1.1399111288161040e-02  1.1342662743673543e-02  1.1404733137586042e-02  1.5594608412275576e-03  1.4681904538504365e-03  1.6364990390750995e-03  1.7141543713471981e-03  1.0018643963950215e-02  1.0074702104389526e-02  9.5954185471107973e-03  1.5301752610857850e-02  1.5241773716133236e-02  1.5182449399892118e-02  1.4667833196361595e-02  1.4486310936575807e-02  1.4301915652167414e-02  1.3590187113332037e-02  1.3594565317782444e-02  1.3906479229467293e-02  1.4191850333844399e-02  1.4170091227703064e-02  1.3903176980213780e-02  1.3573562843053529e-02  1.4171837284419762e-02  1.4404468500100355e-02  1.4119081100607462e-02  1.4334550888137671e-02  2.1354703706334939e-03  2.1462767500608827e-03  1.9636710916273586e-03  1.9445235004124321e-03  1.3535150786322872e-02  1.3607887477636159e-02  1.3621019876621239e-02  1.3701744706728398e-02  1.4031670599539027e-02  1.2897950071077127e-02  1.2545685902791042e-02  1.2756390914593484e-02  1.2680413978919914e-02  1.3252779051169618e-02  1.4724441705558569e-02  1.4645104574699702e-02  1.4654058463021863e-02  1.4098490701264253e-02  1.3999098267518603e-02  1.4061452279021749e-02  1.3953860701348655e-02  1.3901794715590143e-02  1.3903647755151738e-02  1.4015259615925219e-02  1.4031170287663684e-02  1.8635786380869001e-02  1.8726469590513870e-02  1.8700670723485757e-02  1.8642193268458323e-02  1.8804618066611250e-02  1.8839341547334652e-02  1.8956497611132800e-02  1.8703538494951231e-02  1.8869406913390303e-02  1.8989953038761272e-02  1.8198055462723080e-02  1.8185594671077800e-02  1.8321740937048893e-02  1.6806846462172252e-02  1.6849857386616165e-02  1.6816824808160706e-02  1.6868620074546491e-02  1.6872357791264617e-02  1.7060379044856234e-02  1.7078123640157625e-02  1.7254112895658529e-02  1.6330225035982797e-02  1.6803159068131842e-02  1.6324683676388684e-02  1.6551333339033310e-02  1.6262602558231812e-02  1.6068458075386659e-02  1.8588185678465638e-02  1.8748075866654321e-02  1.8391888500805014e-02  1.7974466123653610e-02  1.8082309652625670e-02  1.8730370885486659e-02  1.8835727052694609e-02  1.8974890856398339e-02  1.9059288454235268e-02  1.9094781482484034e-02  1.9316295640750290e-02  1.9363030440015101e-02  1.1513483756983437e-02  1.1539329371575181e-02  1.1563062832823250e-02  1.1598427494349108e-02  1.1556472754299245e-02  1.1498458471126604e-02  1.1503581451840338e-02  1.1495888406628959e-02  1.1498629130876986e-02  1.1500577368395628e-02  1.1466456675427863e-02  1.1510518415020292e-02  1.1468344750574467e-02  1.1501916957009126e-02  1.1513491682373898e-02  1.1529369838148758e-02  1.1519164866951872e-02  1.2155957975725461e-02  1.2301087804051009e-02  1.2189449696522709e-02  1.1521544931760981e-02  1.1723813440554790e-02  1.1857015313701159e-02  1.1767152999048723e-02  1.1805032084508298e-02  1.1670857128176745e-02  1.2005503793119396e-02  1.2160090005399369e-02  1.2043123318212013e-02  1.8358283190863659e-03  1.7195464443054648e-03  1.9093741335286006e-03  1.3945873122459638e-03  1.5842002551514584e-03  1.5620785507298523e-03  1.0349367517256502e-03  1.1674558983080575e-03  1.0499373195524417e-03  9.6594065839613360e-04  2.9344541722511816e-03  2.9957051879465116e-03  2.7639229865601871e-03  2.6867845468390148e-03  2.8556487516403287e-03  2.7427486306818793e-03  1.8865373897564923e-03  1.7309843798623133e-03  1.6701872583357665e-03  1.5222313656254136e-03  2.3004664242654111e-03  2.5368071784058837e-03  2.4669482145527268e-03  2.4984979547186792e-03  2.3473473445805295e-03  2.2484961697569797e-03  2.3269016752109086e-03  9.9000381088428374e-03  1.1389715737933657e-02  9.9124522969766850e-03  6.0348962517732764e-03  7.0568065280926249e-03  7.4551239667743786e-03  8.5623758473831052e-03  1.7267925908921587e-02  1.7647711099839470e-02  1.7215305769151205e-02  1.6834187425492288e-02  1.6976891595384225e-02  1.8974952034684342e-02  1.8199402371379507e-02  1.8330857087586833e-02  1.8588739441660070e-02  1.7396922452933429e-02  1.8922760299456217e-02  1.8435107823056456e-02  1.8711102470544777e-02  1.9120823474516661e-02  1.8783772667995587e-02  1.9146668510306362e-02  1.8973008283960369e-02  1.8785267026672554e-02  1.8944610336164083e-02  1.4732430584767470e-02  1.4641657329698618e-02  1.4550111329334557e-02  1.5326728606213726e-02  1.5629350723345620e-02  1.5495440535032573e-02  1.6874217697406779e-02  1.6441676865320207e-02  1.7569454021098822e-02  1.7989986949712752e-02  1.8446428529543792e-02  1.8097007298910343e-02  1.8225639284752307e-02  1.7990340528334571e-02  1.8342479164545508e-02  1.7140532481523866e-02  1.7118162268019241e-02  1.7451553294370002e-02  1.6824793180798138e-02  1.7733084432380610e-02  1.7808781702030350e-02  1.7657228780343787e-02  1.8471374791580550e-02  1.7701997970294450e-02  1.7323722942032271e-02  1.7402022853963486e-02  2.3264781195814870e-02  2.2579855010535096e-02  2.2590650913378803e-02  2.1892204577081100e-02  2.1672751180696014e-02  2.1291044999872628e-02  2.2076787777882381e-02  2.2449058375463023e-02  3.0396425232655032e-02  2.9745462063580544e-02  3.0400323668705567e-02  3.0344950546100594e-02  2.9870215016818955e-02  2.9604166209933572e-02  3.0248708000517578e-02  3.0096531980749349e-02  2.9801582205636942e-02  2.9166798918777225e-02  1.7960830397830602e-02  1.6205080725869726e-02  1.6288961890781477e-02  1.7990991874875004e-02  1.9608694029550549e-02  2.9677458282672660e-02  3.0069958586894218e-02  2.9116480047065536e-02  2.4547259217968981e-02  2.3814641520148654e-02  2.3597320311419565e-02  2.1812289900377362e-02  2.1638436251755308e-02  2.2514194585980404e-02  8.2308189245573361e-03  7.7023495609827922e-03  8.3632641493953282e-03  8.8604380969997728e-03  9.0206800456970795e-03  8.5060104615881701e-03  2.5594139228284699e-03  2.4000062760531115e-03  1.8845218955366940e-03  3.1190798573266735e-03  2.0328563622367271e-03  6.5047886377336643e-04  3.9883534136461924e-04  4.8032824367461057e-04  1.0135119056999998e-02  1.0507426644161341e-02  1.0564893498803614e-02  1.1072336520834258e-02  1.0977747613015567e-02  1.1385251295638088e-02  1.1288372965090153e-02  1.3007053758413852e-02  1.2724934401249582e-02  1.2921725552968165e-02  1.2416186564649802e-02  1.2444611416749397e-02  1.2550838774765935e-02  9.8884705746605499e-03  9.9662438144384850e-03  1.0239370365111191e-02  9.4084389238462979e-03  9.7821263229816834e-03  9.3731135845166163e-03  8.9305125438155896e-03  9.3408302067503491e-03  7.5938612449209346e-03  7.3066193864424591e-03  7.4634710475929532e-03  7.8944437315585439e-03  6.6818989970393195e-03  6.6186797513299346e-03  7.1314508269687254e-03  6.7464869902421542e-03  6.2187641898235379e-03  6.2435733036204522e-03  6.7601554802646530e-03  7.3017524366968097e-03  6.7758400960976663e-03  6.4453529627320899e-03  6.2392072213452608e-03  7.0023926071041435e-03  5.5819328287109960e-03  1.2847977896423517e-02  1.2238163544921509e-02  1.2157745824402325e-02  1.7021404442576396e-02  1.6528453986829738e-02  1.5961488822449198e-02  9.8673221070283545e-03  1.0439870651023364e-02  1.0161664789226145e-02  1.0698755162187367e-02  9.6758052056583020e-03  9.4849699225710380e-03  1.1001519197911629e-02  1.0687726197119517e-02  1.1147761623426360e-02  1.0419978431453836e-02  9.8612913368886345e-03  1.0583613821841156e-02  1.0647786680727545e-02  1.0092896763934716e-02  1.1551878345461125e-02  4.2913005438248763e-03  3.2425524841398420e-03  4.8673154117510661e-03  5.4387556357008114e-03  6.0275875775944454e-03  2.8503869660264670e-03  3.4829136388731096e-03  3.8907746050702218e-03  2.8346799659986488e-03  1.1446588790398895e-02  1.1429978271425707e-02  1.1376643332444512e-02  1.1391261038037684e-02  1.1387461760098246e-02  1.1238027540450056e-02  1.1182927152369522e-02  1.1308030335501386e-02  1.1232957238332815e-02  1.1182531924680252e-02  1.1168409538331127e-02  1.1192263393620531e-02  1.2015136754056552e-02  1.1989782091343569e-02  1.1886215302538146e-02  1.1915114466262226e-02  1.2234622876407267e-02  1.2214689117982730e-02  1.2358168548244062e-02  1.2339314990796869e-02  1.2486791604476331e-02  1.2466570162683516e-02  1.3036604312746437e-02  1.2524511073975453e-02  1.2587174780720323e-02  1.2394130893173202e-02  1.2648859109427315e-02  1.2776794501580056e-02  1.1358066762669972e-02  1.1489913412872154e-02  1.8222656993296713e-02  1.8100727340919380e-02  1.7744693069370824e-02  1.7940509564340960e-02  1.7815687620346538e-02  1.2184650408575144e-02  1.2247264135875948e-02  1.2283422176785502e-02  1.1817940203951879e-02  1.1769793125825535e-02  1.1804746371132248e-02  9.7534438034018855e-03  9.4186659993145787e-03  9.2731629048186173e-03  7.3293787602384875e-04  1.0333930680892603e-02  1.0497069252745279e-02  1.0768587560871614e-02  1.4373312447002447e-03  1.1674903019869662e-03  1.1856209506988171e-03  1.2710089225332123e-03  1.2994241945447900e-03  1.2710048152807171e-02  1.2749553455579557e-02  1.2489938259183134e-02  1.3027837301841544e-02  1.2918762125864526e-02  1.2673236397814279e-02  1.2953732613515635e-02  1.0651270679264671e-02  1.1024806663300095e-02  1.0727279707516378e-02  1.1354019716450113e-02  1.1328678675725054e-02  1.1068549927862293e-02  1.2582357443707247e-02  1.2932081749560953e-02  1.2614497793098894e-02  1.2347063634173743e-02  1.2032392154009667e-02  1.1987718008462737e-02  1.2304064438167710e-02  1.1829870949144125e-02  1.1892268447263816e-02  1.1514184895484688e-02  1.1128201644670477e-02  1.1209058960074311e-02  1.0817564510736278e-02  1.1820428279306945e-02  1.1724512884570305e-02  1.1474050797284150e-02  1.0934845385706328e-02  1.1282554246478603e-02  5.5083888116581213e-03  4.7803368112739495e-03  5.3390785959358290e-03  9.4955939386950836e-03  9.9034523858412618e-03  9.9934197004972018e-03  1.0204793620286737e-02  6.4777015107453009e-03  5.9720273585512169e-03  6.6106265217332743e-03  5.8174459690344509e-03  6.3815025567700101e-03  7.0369904907177927e-03  1.1990196726077741e-02  1.2251274039350148e-02  1.2085416876309875e-02  1.1731172483804031e-02  1.1906822683423031e-02  1.1200555802444967e-02  1.1257497771122978e-02  1.0909169503773459e-02  1.1812012004524843e-02  1.1510998237987374e-02  6.9983476748004588e-03  6.2970952017333322e-03  6.9497264456922512e-03  6.3567178900923180e-03  7.0611182757093814e-03  7.6731339982299314e-03  5.6442825250407717e-03  6.2725352250295090e-03  5.6052240703777850e-03  3.3115405434820718e-03  3.5576797890828496e-03  3.5970010284775153e-03  4.0458437714292758e-03  4.2675777884881878e-03  1.5251510843267077e-02  1.3557547614814045e-02  1.3862295758233079e-02  1.3576649996751008e-02  1.3262278231002733e-02  1.4054920131497539e-02  1.3822932539451960e-02  1.4143412081443985e-02  1.4821503349397910e-02  1.4432881264112877e-02  1.3873413035825941e-02  1.4993449712900711e-02  1.4840060890919618e-02  1.4813408450413183e-02  1.4641834229749545e-02  1.4229476982452579e-02  1.3910797376791019e-02  1.3714637398440220e-02  1.3424034600747623e-02  1.3571521530631545e-02  1.5099226852373462e-02  1.5134381590090239e-02  1.3865022229161255e-02  1.4434931148318330e-02  1.7671896903597522e-03  1.3762973584341427e-02  1.3703909667828246e-02  1.3731862332465055e-02  1.3855745310948618e-02  1.3884335482723890e-02  1.3825452487166465e-02  1.3821856755990500e-02  1.3367371661133859e-02  1.3394922212822022e-02  1.3341774680538624e-02  1.3304640359810759e-02  1.3342697023889525e-02  1.3400329884828118e-02  1.3217186579743920e-02  1.3264640397812692e-02  1.3150050541929213e-02  1.3310302637002077e-02  1.3197087621629430e-02  1.3308033577358979e-02  1.3060225116284059e-02  1.3008989583881218e-02  1.2312664476800786e-02  1.2058167749988602e-02  1.1939605096773288e-02  1.2953102905516916e-02  1.2819989746313536e-02  1.3197196905177738e-02  1.3413075324901533e-02  1.3561346634667234e-02  1.3049987629046059e-02  1.2900105651965295e-02  1.2529435737925193e-02  1.2842856428082432e-02  7.5635725447674024e-03  7.3639563634873822e-03  7.9104897162890278e-03  9.9873852269168686e-03  1.0309589045618120e-02  1.0413359826995136e-02  1.4629050641129321e-02  1.4541517535822052e-02  1.4618617471685004e-02  1.4717422498761942e-02  1.4691130675354415e-02  1.4790733159464400e-02  1.4532245208580749e-02  1.4562836486620261e-02  1.4622652281380077e-02  1.5268232605262966e-02  1.5291684709575495e-02  1.5294247149788401e-02  1.5258751075635520e-02  1.5246357489463666e-02  1.5167431303102394e-02  1.5099475225164669e-02  1.5139281569343820e-02  1.5126331601337185e-02  1.5059185530462028e-02  1.4993956091667357e-02  1.5017039536537267e-02  1.4988778061002099e-02  1.5063170169445578e-02  1.5028703850093979e-02  1.4993049041589514e-02  1.3647668575279303e-02  1.3660428594755100e-02  1.3556757917715141e-02  1.3579256780360587e-02  1.3960416492317700e-02  1.4016231515728155e-02  1.3861246606034692e-02  1.3911717841582853e-02  1.4038472518284361e-02  1.4473181166313305e-02  1.4169986085893121e-02  1.4197758578616368e-02  1.4158676055665429e-02  1.4099314696657563e-02  1.3930419576645347e-02  1.4025760918619215e-02  1.3982594100298427e-02  1.4091089038569126e-02  1.4115421360523300e-02  1.4120228803097526e-02  1.4208154227150282e-02  1.4044746422622574e-02  1.3943682725960617e-02  1.8872892063826138e-02  1.8661033835098133e-02  1.8800123417334412e-02  9.2773054698017613e-03  9.5156371507995798e-03  8.8658821697467534e-03  1.9130072751773784e-02  1.9213422961884104e-02  1.8928400918279797e-02  1.8491168401620874e-02  1.7024195828515200e-02  1.7066150258598093e-02  1.6826962726899292e-02  1.6999270067160489e-02  1.7193368978648992e-02  1.8377166926274956e-02  1.8690548536457276e-02  1.7444116337388713e-02  1.7276094748513823e-02  1.7435027667238274e-02  1.8324611140556692e-02  1.7411207031920718e-02  1.7254212165957593e-02  1.7338572590610495e-02  1.7895390595548708e-02  1.8049170400100806e-02  1.7106058359394730e-02  1.7067198837807392e-02  1.6961759927242043e-02  1.6916383161853444e-02  1.6921270250630158e-02  1.6865049190614725e-02  1.6902779296688032e-02  1.6896846772405754e-02  1.6836484455262025e-02  1.6842721817570357e-02  1.6773143193418435e-02  1.6857486680211545e-02  1.5854886750900656e-02  1.7028286155575671e-02  1.4677992039584609e-02  1.4806957957459822e-02  1.4810309058264933e-02  1.4661549637468643e-02  1.6374370872552793e-02  1.5965259952908029e-02  1.6048975819965863e-02  1.4737170377755416e-02  1.5031381618900103e-02  1.4764432552767246e-02  1.5253913162656830e-02  1.4976766385094164e-02  1.5704451131099112e-02  1.5003517814407865e-02  1.4838770873931045e-02  1.5044810793369324e-02  1.5750669195887960e-02  1.5439733612569109e-02  1.5764066115417322e-02  1.8933837862317709e-02  1.8709599072137210e-02  1.8508846583077488e-02  1.8825137917242635e-02  1.8566830419579631e-02  9.1294579070802292e-03  9.7810714275356047e-03  1.8873626937423504e-02  1.9069451832930157e-02  1.8587189070013922e-02  1.9401101213577687e-02  1.9326261709913962e-02  1.9341599582753763e-02  1.9158272343136089e-02  1.9176074951787855e-02  1.9272484541604028e-02  1.8576940719967686e-02  1.9157831673781319e-02  1.9057878949767567e-02  1.9229712092365250e-02  1.9319322212656986e-02  1.9226424191099687e-02  1.9346399315081184e-02  1.9365859429856976e-02  1.9367281320686488e-02  1.1588961110533267e-02  1.1638056893273760e-02  1.1634770499121792e-02  1.1614624874274684e-02  1.1689299966922669e-02  1.1488848155368124e-02  1.1510264298428335e-02  1.1481705902786335e-02  1.1458336337837518e-02  1.1494117510391675e-02  1.1490244160631116e-02  1.1519451340249643e-02  1.1859166868568867e-02  1.1854310642135079e-02  1.1896344252179940e-02  1.1811726534770074e-02  1.1771675935912699e-02  1.1733073591258299e-02  1.1723819243722507e-02  1.1646720938753510e-02  1.1664091374698784e-02  1.1701285962362699e-02  1.1685100034298771e-02  1.1742898804534878e-02  1.1726775698915773e-02  1.1637078695817604e-02  1.1769606732223254e-02  1.1785336765490881e-02  1.1828808491684927e-02  1.1770223904442996e-02  1.1936016030691304e-02  1.1902769056981113e-02  1.1869302286426336e-02  1.1537638572651257e-02  1.1540187526885178e-02  1.1536166270560155e-02  1.1936337585060844e-02  1.1912487338101038e-02  1.1969969823168541e-02  1.1993856882995447e-02  1.2083765010582807e-02  1.2225493264145846e-02  1.1871048107748874e-02  1.1989115183338572e-02  1.1911019442453461e-02  1.1771432679672551e-02  1.1833238666253465e-02  1.1852873613240228e-02  1.1891692707455196e-02  1.1960413193958542e-02  1.2031470426588711e-02  1.1984162703510591e-02  1.2026833959788479e-02  1.1950648624039013e-02  1.1893189952042010e-02  1.1985460991940497e-02  1.1571642870885256e-02  1.1559709964301560e-02  1.1592948663673519e-02  1.1640993513702739e-02  1.1624963807926769e-02  1.1800365277503107e-02  1.1825137373981141e-02  1.1717585629169787e-02  1.1863386166885570e-02  1.1775329784467015e-02  1.1970979068382022e-02  1.1737788009855209e-02  1.1691612960934848e-02  1.2091676647662267e-02  1.2070340257661299e-02  1.1952492123644094e-02  1.2191521481456443e-02  1.1553482674033166e-02  1.1482396204565981e-02  1.1614313283992855e-02  1.1955317352667503e-02  1.1895277378896974e-02  1.2055293912715743e-02  1.6897903516387338e-03  1.566158667