<?xml version="1.0"?>
<VTKFile type="UnstructuredGrid"  version="0.1"  >
<UnstructuredGrid>
<Piece  NumberOfPoints="6340" NumberOfCells="12376">
<Points>
<DataArray  type="Float64"  NumberOfComponents="3"  format="ascii">-0.01954000070691109 0.02072099968791008 0  -0.02032399922609329 0.0214220006018877 0  -0.02053000032901764 0.02041999995708466 0  -0.02117699943482876 0.02124599926173687 0  -0.01975500024855137 0.01979699917137623 0  -0.01940199919044971 0.02160299941897392 0  -0.01998499967157841 0.02238300070166588 0  -0.01950499974191189 0.02318700030446053 0  -0.02053800038993359 0.02320300042629242 0  -0.01892600022256374 0.02232199907302856 0  -0.007832000032067299 0.01814199984073639 0  -0.008520999923348427 0.01897599920630455 0  -0.008848000317811966 0.01803600043058395 0  -0.009545999579131603 0.01890899986028671 0  -0.02610599994659424 0.07825600355863571 0  -0.02704199962317944 0.07878699898719788 0  -0.02722799964249134 0.07800000160932541 0  -0.02668200060725212 0.07165800034999847 0  -0.02731500007212162 0.07245299965143204 0  -0.02751499973237514 0.07156399637460709 0  -0.0282600000500679 0.07208000123500824 0  -0.01215299963951111 0.08878300338983536 0  -0.01304899994283915 0.08875799924135208 0  -0.01251799985766411 0.08800400048494339 0  -0.01984000019729137 0.08374500274658203 0  -0.01882500015199184 0.08380000293254852 0  -0.0192830003798008 0.08457999676465988 0  -0.01938500069081783 0.08295899629592896 0  -0.02246999926865101 0.0249210000038147 0  -0.02151600085198879 0.02491400018334389 0  -0.02196400053799152 0.02579000033438206 0  -0.02236600033938885 0.02666799910366535 0  -0.02293599955737591 0.02580999955534935 0  -0.02100200019776821 0.02578599937260151 0  -0.02053000032901764 0.02490299940109253 0  -0.01952799968421459 0.02488699927926064 0  -0.02001599967479706 0.02576600015163422 0  -0.02201499976217747 0.0240240003913641 0  -0.02305999957025051 0.02409699931740761 0  -0.02236999943852425 0.02277000062167645 0  -0.02178999967873096 0.02202999964356422 0  -0.02153100073337555 0.02312500029802322 0  -0.02092600055038929 0.0222800001502037 0  -0.01601600088179111 0.02195899933576584 0  -0.01653500087559223 0.02107799984514713 0  -0.01547599956393242 0.0210730005055666 0  -0.01700099930167198 0.02206199988722801 0  -0.01800799928605556 0.02209999971091747 0  -0.01751199923455715 0.02297700010240078 0  0.03921499848365784 0.08154600113630295 0  0.03902700170874596 0.08067400008440018 0  0.0402120016515255 0.08091899752616882 0  0.04075200110673904 0.09235700219869614 0  0.04145999997854233 0.09269899874925613 0  0.04044599831104279 0.09320899844169617 0  0.02413100004196167 0.1014159992337227 0  0.02431200072169304 0.1005290001630783 0  0.02512899972498417 0.1009140014648438 0  0.02321499958634377 0.1018769964575768 0  0.02339199930429459 0.1008030027151108 0  -0.007056000176817179 0.09660500288009644 0  -0.006163000129163265 0.09671899676322937 0  -0.006754999980330467 0.09745699912309647 0  -0.00585100008174777 0.09757799655199051 0  -0.01753300055861473 0.09768100082874298 0  -0.01785299926996231 0.09702499955892563 0  -0.01686199940741062 0.09712400287389755 0  -0.01843399927020073 0.09786099940538406 0  -0.01461399998515844 0.1031830012798309 0  -0.0148910004645586 0.1040059998631477 0  -0.01535100024193525 0.1033250018954277 0  -0.01057100016623735 0.09566099941730499 0  -0.00976600032299757 0.09567900002002716 0  -0.01034899987280369 0.09643100202083588 0  -0.01137600000947714 0.09565100073814392 0  -0.01079300045967102 0.09490100294351578 0  -0.01159899961203337 0.09489099681377411 0  -0.01392399985343218 0.09784699976444244 0  -0.01446700002998114 0.09856700152158737 0  -0.014767000451684 0.09782399982213974 0  -0.01276899967342615 0.09638399630784988 0  -0.01360000018030405 0.0963750034570694 0  -0.01300899963825941 0.09563100337982178 0  0.01089099980890751 0.0932919979095459 0  0.01184600032866001 0.09323800355195999 0  0.01127300038933754 0.09406399726867676 0  0.007455000188201666 0.07839799672365189 0  0.00796900037676096 0.07756900042295456 0  0.008409000001847744 0.07834299653768539 0  -0.007530000060796738 0.01727000065147877 0  -0.006705999840050936 0.01750200055539608 0  -0.008409000001847744 0.01713900081813335 0  -0.009327000007033348 0.01700199954211712 0  -0.01303000003099442 0.01688000001013279 0  -0.01329900044947863 0.01795700006186962 0  -0.01391499955207109 0.01706000044941902 0  -0.01245999988168478 0.01778499968349934 0  -0.0124930003657937 0.01880900003015995 0  -0.01162800006568432 0.01797300018370152 0  -0.0120430001989007 0.02173300087451935 0  -0.01252899970859289 0.02077499963343143 0  -0.01157100033015013 0.02082899957895279 0  -0.01109400019049644 0.01998200081288815 0  -0.01053899992257357 0.02082999981939793 0  -0.01205500029027462 0.01982899941504002 0  -0.01301500014960766 0.02173699997365475 0  -0.01447299961000681 0.02094700001180172 0  -0.01498799957334995 0.02191100083291531 0  -0.01399200037121773 0.02180800028145313 0  -0.009031999856233597 0.01985899917781353 0  -0.0109850000590086 0.03071399964392185 0  -0.01149599999189377 0.02984200045466423 0  -0.01047900039702654 0.02980099990963936 0  -0.005406000185757875 0.02955899946391582 0  -0.005911000072956085 0.03048199974000454 0  -0.006417999975383282 0.02961299940943718 0  -0.008053000085055828 0.01993799954652786 0  -0.005535000003874302 0.01942799985408783 0  -0.006523000076413155 0.01924999989569187 0  -0.005737000145018101 0.01858199946582317 0  -0.005816000048071146 0.01775299943983555 0  -0.00482999999076128 0.01803000085055828 0  0.0427360013127327 0.08855599910020828 0  0.0435510016977787 0.08812499791383743 0  0.04326299950480461 0.08914999663829803 0  0.04227599874138832 0.08928599953651428 0  0.01638899929821491 0.05914799869060516 0  0.01741700060665607 0.05907300114631653 0  0.01693899929523468 0.05995700135827065 0  0.0300149992108345 0.0444439984858036 0  0.0304969996213913 0.04340400174260139 0  0.03094499930739403 0.04414099827408791 0  0.03198599815368652 0.04864899814128876 0  0.03288599848747253 0.04798899963498116 0  0.03318699821829796 0.0487230010330677 0  0.03161200135946274 0.05203299969434738 0  0.03070200048387051 0.05211799964308739 0  0.03124799951910973 0.05119900032877922 0  0.03085899911820889 0.0503930002450943 0  0.03183399885892868 0.05028500035405159 0  0.03029900044202805 0.05129700154066086 0  0.02976199984550476 0.05220400169491768 0  0.02986600063741207 0.05051499977707863 0  0.02936399914324284 0.04974700137972832 0  0.02886299975216389 0.05061899870634079 0  0.02834100089967251 0.0498340018093586 0  0.04023300111293793 0.09084299951791763 0  0.03924300149083138 0.09090200066566467 0  0.03982599824666977 0.09008900076150894 0  0.03885800018906593 0.09011600166559219 0  0.008351000025868416 0.02483800053596497 0  0.009115000255405903 0.02530799992382526 0  0.008352000266313553 0.02590199932456017 0  0.009185999631881714 0.0262679997831583 0  0.02785000018775463 0.05070700123906136 0  0.02384299971163273 0.05268900096416473 0  0.02335900068283081 0.05356999859213829 0  0.02282500080764294 0.05275600031018257 0  0.02436899952590466 0.05350099876523018 0  0.0301900003105402 0.05302000045776367 0  0.01926299929618835 0.03586100041866302 0  0.01837800070643425 0.03571600094437599 0  0.01880300045013428 0.03483400121331215 0  0.01371399965137243 0.0410269983112812 0  0.01276700012385845 0.04102500155568123 0  0.01324099954217672 0.04014400020241737 0  0.01229299977421761 0.04014400020241737 0  0.01181900035589933 0.04102300107479095 0  0.0118180001154542 0.03925900161266327 0  0.01276700012385845 0.0392640009522438 0  0.01324099954217672 0.04190799966454506 0  -0.02814199961721897 0.07293999940156937 0  -0.02703199908137321 0.07326500117778778 0  -0.02803299948573112 0.07372599840164185 0  -0.02634100057184696 0.0725409984588623 0  -0.02595599927008152 0.07335600256919861 0  -0.02491299994289875 0.0734499990940094 0  -0.02540300041437149 0.07421000301837921 0  -0.02432399988174438 0.07270000129938126 0  -0.02388999983668327 0.07352899760007858 0  -0.02441900037229061 0.07428900152444839 0  -0.02834399975836277 0.07118300348520279 0  -0.01872799918055534 0.08540699630975723 0  -0.01973799988627434 0.08535700291395187 0  -0.01776799932122231 0.09399300068616867 0  -0.01866200007498264 0.09400799870491028 0  -0.01810799911618233 0.09324599802494049 0  -0.01899899914860725 0.09326499700546265 0  -0.01845799945294857 0.09249299764633179 0  -0.01696900092065334 0.09638399630784988 0  -0.01614199951291084 0.09638900309801102 0  -0.01595900021493435 0.09712699800729752 0  -0.01343800034373999 0.08797100186347961 0  -0.01139899995177984 0.08178400248289108 0  -0.01038900017738342 0.08184000104665756 0  -0.01085299998521805 0.08261600136756897 0  -0.01034200005233288 0.08343800157308578 0  -0.009863999672234058 0.08266600221395493 0  -0.01555399969220161 0.07987800240516663 0  -0.0160910002887249 0.07901100069284439 0  -0.01508599985390902 0.07907699793577194 0  -0.01408100035041571 0.07914300262928009 0  -0.01460199989378452 0.07827799767255783 0  -0.01837100088596344 0.08301699906587601 0  -0.01792299933731556 0.08222000300884247 0  -0.01893799938261509 0.08215600252151489 0  -0.01995399966835976 0.08209399878978729 0  -0.02497700043022633 0.07505699992179871 0  -0.02549800090491772 0.07747700065374374 0  -0.02505699917674065 0.07832600176334381 0  -0.02342600002884865 0.02480000071227551 0  -0.02377999946475029 0.02548000030219555 0  -0.02402500063180923 0.02615099959075451 0  -0.0242880005389452 0.0268740002065897 0  -0.02330099977552891 0.02672399953007698 0  -0.02003199979662895 0.02404000051319599 0  -0.0190190002322197 0.0240119993686676 0  -0.02104699984192848 0.02403699979186058 0  -0.02270499989390373 0.0234140008687973 0  -0.01747299917042255 0.01823700033128262 0  -0.01709200069308281 0.01900099962949753 0  -0.01827999949455261 0.01861000061035156 0  -0.01664499938488007 0.01785399951040745 0  -0.01847399957478046 0.02311999909579754 0  -0.0165
[...]
<PointData  Scalars="pressure"> 
<DataArray  type="Float64"  Name="pressure"  format="ascii">9.0232782150398531e-03  8.9356363582570077e-03  8.9878980482207375e-03  8.9125445438533648e-03  9.0721167762978575e-03  8.9735884309200473e-03  8.8924679102978799e-03  8.8729157311515303e-03  8.8249042031555026e-03  8.9555865537226994e-03  9.8397706441480798e-03  9.7846168316636332e-03  9.8593062199006584e-03  9.7950799690445095e-03  1.6060110590978140e-02  1.6101183600881162e-02  1.6058947321602721e-02  1.5493312003770209e-02  1.5525033534361897e-02  1.5422022809085846e-02  1.5506585940716713e-02  1.5260006857464632e-02  1.5461982732377994e-02  1.5220542976771927e-02  1.6275852409754387e-02  1.6226735939091703e-02  1.6220790080112436e-02  1.6287501251837613e-02  8.7416072552991067e-03  8.7499818053690670e-03  8.7466202209004282e-03  8.7666497828113935e-03  8.7488862706139748e-03  8.7594790932128547e-03  8.7739463578934869e-03  8.8055925044256498e-03  8.7789535716430098e-03  8.7571544280273597e-03  8.7488145150362087e-03  8.7958400171136916e-03  8.8440841665676853e-03  8.7971888374157488e-03  8.8580958763021262e-03  9.1943292123711027e-03  9.2257874184536737e-03  9.3149198555363775e-03  9.1085466947814497e-03  9.0313939188182615e-03  9.0040066908890076e-03  4.0317708949974447e-03  3.5686776270724536e-03  3.8975855255774733e-03  6.8816571796312051e-03  6.6351051126518987e-03  6.8993032205287479e-03  1.7740854082590074e-02  1.6284722562226298e-02  1.6506850566872705e-02  1.9042294440549445e-02  1.7202887260967685e-02  1.8978091975658896e-02  1.9165399702765592e-02  1.9662638310384277e-02  1.9891141513349513e-02  1.8413833916161533e-02  1.8152806984551247e-02  1.8310429679714822e-02  1.8334822988894248e-02  2.1390630953574290e-02  2.1637014152953604e-02  2.1180106157442487e-02  1.8078924071961315e-02  1.8120055248633395e-02  1.8557368911436126e-02  1.8044986635944178e-02  1.7623206959478027e-02  1.7617802849946837e-02  1.8960115850475332e-02  1.9224268478095562e-02  1.8847386288281767e-02  1.8358341773156418e-02  1.8300367361099523e-02  1.7974926892091535e-02  1.5697302913320329e-02  1.5456888762545805e-02  1.5996900890831195e-02  2.3622081738015575e-03  1.4950772703451144e-03  2.1729710437819356e-03  9.8427029348069871e-03  9.8242405430063878e-03  9.8723125886172446e-03  9.8922700671297877e-03  9.7645935238725567e-03  9.7206907938524913e-03  9.6985191666283631e-03  9.7856714245149815e-03  9.7201530862138612e-03  9.8261997559212378e-03  9.4929623923414169e-03  9.5560015405352083e-03  9.5962871881061056e-03  9.6868692653997793e-03  9.6316145898009166e-03  9.6633782999798572e-03  9.4370755269632123e-03  9.4071852584178654e-03  9.2792997228008812e-03  9.3636733042992484e-03  9.7278577716984303e-03  9.3580381376726085e-03  9.2679174122275408e-03  9.3582068949519745e-03  9.7811177903838458e-03  9.7368550599743527e-03  9.7050573473441773e-03  9.7324163100286007e-03  9.7865238282140617e-03  9.7762355900004629e-03  9.8082782550819158e-03  9.8036062023800219e-03  9.7852147246163031e-03  6.5135729857550570e-03  6.6738732876633509e-03  6.4705292875700034e-03  6.5784416283498409e-03  7.8176996598341708e-03  7.8359677465812544e-03  7.6009770843937230e-03  1.2749719671590692e-02  1.2714757717590126e-02  1.2811085296920703e-02  1.2913342993264708e-02  1.2966788600150655e-02  1.2955134528492456e-02  1.2055742154811474e-02  1.1969084034230753e-02  1.2308147744828371e-02  1.2494564504899844e-02  1.2590178325868329e-02  1.2197476209288249e-02  1.1841921784554689e-02  1.2357253104930157e-02  1.2452990819883106e-02  1.2179889068601082e-02  1.2254403108490668e-02  6.9664700425169099e-03  7.1301969724214950e-03  6.9348538316136360e-03  7.0525520322595623e-03  9.8100289260273556e-03  9.8375750840513556e-03  9.8409493847315555e-03  9.8409950145401902e-03  1.1959486207369413e-02  1.0329670097832368e-02  9.9395433375627923e-03  1.0046838581839442e-02  1.0218450499338786e-02  1.1582251042167632e-02  1.1009198029989297e-02  1.0917606849268850e-02  1.0892195251388622e-02  1.0373555982765978e-02  1.0257929803166241e-02  1.0331586909032823e-02  1.0214297461106392e-02  1.0153342212493326e-02  1.0167672896488227e-02  1.0287209352169729e-02  1.0291500345126480e-02  1.5621883965338612e-02  1.5629617660327777e-02  1.5709300921899053e-02  1.5606983141277491e-02  1.5716119127107409e-02  1.5786779066633443e-02  1.5830747203480464e-02  1.5742662176089182e-02  1.5860573448724442e-02  1.5906804145648643e-02  1.5412769476171760e-02  1.6159800555839023e-02  1.6216742031675037e-02  1.7226175043582665e-02  1.7188496416306310e-02  1.7018826485176147e-02  1.6993371027987196e-02  1.6835953382773786e-02  1.8029770168007105e-02  1.8109842416371164e-02  1.8417499617621201e-02  1.5437149427202024e-02  1.4181933153535869e-02  1.3673247072617665e-02  1.4075012287667979e-02  1.3983855408339900e-02  1.3587566841717165e-02  1.5766372486120443e-02  1.5860133129387197e-02  1.5527585334966511e-02  1.5108606062596824e-02  1.5203429638391861e-02  1.6224351299840560e-02  1.6212003330888257e-02  1.6294199146870626e-02  1.6332912686154236e-02  1.5937277244024342e-02  1.6074480838971800e-02  1.6139709175173145e-02  8.7455816036740019e-03  8.7570250654782876e-03  8.7764123628774580e-03  8.8158387690854337e-03  8.7788694985748914e-03  8.8122218479001670e-03  8.8570969818991523e-03  8.7767535629294617e-03  8.7659391936733676e-03  9.3589505773945744e-03  9.3273265848955594e-03  9.2706069900632421e-03  9.4558413884791460e-03  8.9330218390143313e-03  9.0783102089751610e-03  9.0485967330314020e-03  8.9788298048911856e-03  9.2773679099555102e-03  9.3844788715261654e-03  9.3145464080138587e-03  9.5402180825140299e-03  9.4673547300176287e-03  9.4701399779355405e-03  9.3862836905228928e-03  9.5386341222700576e-03  9.5444678633767044e-03  9.4967718888411198e-03  9.5358384512333437e-03  9.4319599059039753e-03  6.3547038876030333e-03  6.0274130315944082e-03  6.2328500692145558e-03  6.4589412478569808e-03  6.6291441152191459e-03  6.6916807071358709e-03  5.6810136246709247e-03  5.8558376485260168e-03  5.4307008023473761e-03  3.4191666531999450e-03  7.4477697006467575e-03  7.7423797750963211e-03  7.6249306679673431e-03  7.3803380027985021e-03  7.2486325005430658e-03  7.0706993441304383e-03  7.1735897697348498e-03  6.9319285862714250e-03  7.0315711504793221e-03  6.7639643457766746e-03  6.9490460025965622e-03  7.1223597125472955e-03  7.3086561635365282e-03  7.5407003411258984e-03  7.7033409559383566e-03  7.4967329544021154e-03  7.1340754497430277e-03  2.1842188137908634e-02  2.3252852977760998e-02  2.1529982316599784e-02  1.7434748000294022e-02  1.8637351185395321e-02  1.9044926012349160e-02  2.0405412841040485e-02  1.8728160943443956e-02  1.9155301842151605e-02  1.8634952177611061e-02  1.8169079284867520e-02  1.8443003622585441e-02  2.1250826546406136e-02  2.0277267583805055e-02  2.0658529179115148e-02  2.0352495318617672e-02  1.8644639722285430e-02  2.0514587719752404e-02  2.0068860018705774e-02  2.0290008959573634e-02  2.0794512540769965e-02  2.0524288798960913e-02  2.0900929612128527e-02  2.0716597269825825e-02  2.0475876771991981e-02  2.0652074458746263e-02  1.5136479003981591e-02  1.4787928416128908e-02  1.4684018631340480e-02  1.5899822050316863e-02  1.6345908603029088e-02  1.6012362019691251e-02  1.7941353030599353e-02  1.7622270651603565e-02  1.9042308786459072e-02  1.9548145783905419e-02  2.0063680050814554e-02  1.9627092902364855e-02  1.9788034608470232e-02  1.9498482670279944e-02  1.9934300229085634e-02  1.8487029314600188e-02  1.8421457431793069e-02  1.8848459802872780e-02  1.8009355438594936e-02  1.9185048943566936e-02  1.9299658289719392e-02  1.9072331373906216e-02  2.0093235303549076e-02  1.9087852222957953e-02  1.8588233135691704e-02  1.8758836115588956e-02  2.6271709026156241e-02  2.5479241719886421e-02  2.5695108718515616e-02  2.4856233729229252e-02  2.3934572812056399e-02  2.3611272125031349e-02  2.4523798078438699e-02  2.4810950974795801e-02  3.2751396247052839e-02  3.2545075429379663e-02  3.3338375242279339e-02  3.2131493456237795e-02  3.2125658584349875e-02  3.0946077611062286e-02  3.1535699843063827e-02  3.0953258566638782e-02  3.1523037381674751e-02  3.0935163104935430e-02  2.9126921719632611e-02  2.7201852212729850e-02  2.7710492086157390e-02  2.8686782057841125e-02  3.0444944018105696e-02  3.5223749887017083e-02  3.4938828357325945e-02  3.4299073244930478e-02  2.8720598000860298e-02  2.7807203143482583e-02  2.7963797608569433e-02  2.5012173220005582e-02  2.5109187971717704e-02  2.5867330635956840e-02  1.3304988291441482e-02  1.3410281818778336e-02  1.3724602796586469e-02  1.3594958257675243e-02  1.4018618482222278e-02  1.4138340399963756e-02  7.5683535738659772e-04  3.5542920220653015e-04  2.5951116722390793e-04  9.1412627691672167e-04  6.4811153265435361e-04  6.9285269688266603e-04  5.8730661473620997e-04  3.8200069444957636e-04  7.8662118312547904e-03  8.0476353964681162e-03  8.0928884459916164e-03  8.8295311879049120e-03  8.6686537386877500e-03  9.0526753324474893e-03  8.8720376866506766e-03  9.9848589205554870e-03  9.6886203204915693e-03  9.8056876805485867e-03  9.4542915661199375e-03  9.4969862675061897e-03  9.5509582379391320e-03  8.3919772252953936e-03  8.5552843058729813e-03  8.8254563206431845e-03  7.7150305579212642e-03  8.0664800116752120e-03  7.6367582659745544e-03  7.1816853503655631e-03  7.5746004369765182e-03  1.2990313232369467e-02  1.2094042332863379e-02  1.2557407448803719e-02  1.2403496522372250e-02  5.2669586397946127e-03  5.2764759385709424e-03  5.6226305566837954e-03  5.2492440046207987e-03  4.8883868524903489e-03  4.8409286247785210e-03  5.1861399425273957e-03  5.5840322974712057e-03  5.1282823077080947e-03  4.2178246941242149e-03  4.4483218797718325e-03  4.7625858253539941e-03  3.9562164419101034e-03  1.7656858883629875e-02  1.6904427572377489e-02  1.7383456783640130e-02  2.1112855804317567e-02  2.0272851566124316e-02  2.0064426298586228e-02  1.3678717621090323e-02  1.3902724057440847e-02  1.3433548824963826e-02  1.3634732300003977e-02  1.4290663388963735e-02  1.3865121490958799e-02  1.4105978856363537e-02  1.4334949524089723e-02  1.5209781725973379e-02  1.5729347173492572e-02  1.6397661117223263e-02  1.7235571200570052e-02  1.6740963481060939e-02  1.6028293937836863e-02  1.6633157829269753e-02  2.9859900743213971e-03  2.0390274739986707e-03  3.1652692426449281e-03  4.0713710803583440e-03  4.2760017356610249e-03  1.3401585492996493e-03  3.6094643569111961e-03  3.6715315305897887e-03  2.6959289234630675e-03  9.4406744085961860e-03  9.5524813232776909e-03  9.6210025929289403e-03  9.5445706940786544e-03  9.6115356503798169e-03  9.8179250855793682e-03  9.8629330959629398e-03  9.7554478695212124e-03  9.8170995699904170e-03  9.8707053543817085e-03  9.8926074446607677e-03  9.8749825981303326e-03  9.1807337755621179e-03  9.1873030775145165e-03  9.1028159614065535e-03  9.1060681011951410e-03  9.3797943269319176e-03  9.4208057826183286e-03  9.4755818541364216e-03  9.5233117388821825e-03  9.5736494897861752e-03  9.6250985267562327e-03  9.7968339618332897e-03  9.9002979039892469e-03  9.9009399842056728e-03  9.8648811073498762e-03  9.8836970147176267e-03  9.9242755666839669e-03  9.7757556847960780e-03  9.7432488854699000e-03  1.5335944935413943e-02  1.5326719375541533e-02  1.5101512712257041e-02  1.5205182748037548e-02  1.5112157010790871e-02  1.0419854685247011e-02  1.0392289080407697e-02  1.0335755237930408e-02  1.0525647590022242e-02  1.0586463207168145e-02  1.0513843812422177e-02  7.5516771477940545e-03  7.1524281025547474e-03  7.2645083842606678e-03  3.0372502689450962e-03  8.3169208491832153e-03  8.5469900541803676e-03  8.7771315233619064e-03  6.4821798390855331e-03  6.0559920660862888e-03  6.3344163022185712e-03  6.2726951965540075e-03  6.5409425702559441e-03  1.1254814169595177e-02  1.1567782055957238e-02  1.1210609187258531e-02  1.1606242346882260e-02  1.1755860633152305e-02  1.1194480935722765e-02  1.1481054770715607e-02  8.8053212300389302e-03  9.2383309535362945e-03  8.9187735726755108e-03  9.6339378850969510e-03  9.5581405577265036e-03  9.3355978980632168e-03  1.0864980530576038e-02  1.1292291266349883e-02  1.0986130965132204e-02  1.0775620114926603e-02  1.0416639524964305e-02  1.0326156500799476e-02  1.0670829793175792e-02  9.9502260816572031e-03  1.0094877033871311e-02  9.6392660517824521e-03  9.1891362262200987e-03  9.3243238349284916e-03  8.8860453763651044e-03  1.0096987825391673e-02  1.0114606360112082e-02  9.8025433147008786e-03  9.0998615605322655e-03  9.5701516846768732e-03  5.1308277993374366e-03  4.6105437384471775e-03  4.9943668431059931e-03  7.5381318404190252e-03  7.7767756531909853e-03  7.8555328208004330e-03  7.9172596617647171e-03  5.0233025329582542e-03  4.4405021187712392e-03  5.0187083752034310e-03  4.4526501532346809e-03  5.0676441525154270e-03  5.6085643047738771e-03  9.5448760810859096e-03  9.6204354633031043e-03  9.5153817814422753e-03  9.4555733144391640e-03  9.5868997377476905e-03  9.1231397470425586e-03  9.0829547541415850e-03  8.8711828129472148e-03  9.4191482749150617e-03  9.2850831399171295e-03  6.0089760935181438e-03  5.4635588860994008e-03  5.9050347233738365e-03  5.5845791394633620e-03  6.1012130571826556e-03  6.4953197125596817e-03  4.6091335156741827e-03  5.2246219772753271e-03  4.7275464246216946e-03  4.5037149894390878e-03  5.0572955192265227e-03  5.0760046300696643e-03  4.0510102309539399e-03  4.2500065328522282e-03  1.2832823125852346e-02  1.2105893609090878e-02  1.2437463633456923e-02  1.2167398633600803e-02  1.1757286200853836e-02  1.2793194668292311e-02  1.2634510455776290e-02  1.2646609427637599e-02  1.2887157100629140e-02  1.2730299471496259e-02  1.2381691178817038e-02  1.2766396929103597e-02  1.2787968562464457e-02  1.2654649415164240e-02  1.2659046836134325e-02  1.2017143051669900e-02  1.1698829335131410e-02  1.0852595398789949e-02  1.0539188840056743e-02  1.0591201342782890e-02  1.2710994672298345e-02  1.2835538217996271e-02  1.2042359565580883e-02  1.2607731531224452e-02  6.8349450304796477e-03  9.8963180708804589e-03  9.8568636944047945e-03  9.9295933174031129e-03  1.0016528893152438e-02  9.9673043658895684e-03  9.9473412561502626e-03  9.9091858944598335e-03  9.7683971747239938e-03  9.7764848797567052e-03  9.8039666429761835e-03  9.7872599869091876e-03  9.7617749414998164e-03  9.7543935859391688e-03  9.8753059739754741e-03  9.8945486393814154e-03  9.9162561958269640e-03  9.8489675614114678e-03  9.9248636636824431e-03  9.9022476864626102e-03  9.9372932491456224e-03  9.9267015002394172e-03  9.8086398246809391e-03  9.6512908903432105e-03  9.4091755211374879e-03  1.0784019400366395e-02  1.0502864969279832e-02  1.0930418025390343e-02  1.1034276211270566e-02  1.1330836677057393e-02  1.0632869134935927e-02  1.1163895524143755e-02  1.0716093288378884e-02  1.0999113334276538e-02  6.1369816115098485e-03  6.0504475076621324e-03  6.4044796823283616e-03  8.0368926773323780e-03  8.3274913574566435e-03  8.4581232357049032e-03  1.0812660149376527e-02  1.0780371068035362e-02  1.0878821105634640e-02  1.0912270823450622e-02  1.0899580971023060e-02  1.1027948426600445e-02  1.0823676448819122e-02  1.0827608226437312e-02  1.0924993054599340e-02  1.2104717362811587e-02  1.2234770944251452e-02  1.2100476165385617e-02  1.1966063634293974e-02  1.1962166806341079e-02  1.1877136617458916e-02  1.1760769655891975e-02  1.1752458918411014e-02  1.1584462762103731e-02  1.1474618121682678e-02  1.1500895875456095e-02  1.1379415600064217e-02  1.1399745460457337e-02  1.1515686297496521e-02  1.1526236673259357e-02  1.1409748197869675e-02  9.9285270515231498e-03  9.9489518216867717e-03  9.8571423521794412e-03  9.8854617974157774e-03  1.0369810234785328e-02  1.0490400129755819e-02  1.0324370420770574e-02  1.0270096917481694e-02  1.0404644548099256e-02  1.0732612791344522e-02  1.0459357414404910e-02  1.0499932158273127e-02  1.0538654452214354e-02  1.0522457590609647e-02  1.0213968757042302e-02  1.0315102772582022e-02  1.0301753426437745e-02  1.0422072393037208e-02  1.0421797221525635e-02  1.0406130553983128e-02  1.0531344612741661e-02  1.0311322165603008e-02  1.0193035975251017e-02  1.6000166425636800e-02  1.5887599141479539e-02  1.5963631490987791e-02  6.1098310464465025e-03  6.5621961895210475e-03  5.7966508281526701e-03  1.6015411056393640e-02  1.6034969722454814e-02  1.5776402628004976e-02  1.5546274986853865e-02  1.6224380460538920e-02  1.6076865282971021e-02  1.6133335069537427e-02  1.6379735351346840e-02  1.6297640421031281e-02  1.5636917664686830e-02  1.5932502074540458e-02  1.6481397887371636e-02  1.6539005625325488e-02  1.6429822354163744e-02  1.6158194582890389e-02  1.6250463767625019e-02  1.6174481565968818e-02  1.6350370244302991e-02  1.6128449240860310e-02  1.6186502391329287e-02  1.8064587796925612e-02  1.7888710977610404e-02  1.7751265590089785e-02  1.7659414797065350e-02  1.7603416730313834e-02  1.7412968292582622e-02  1.7354512618694792e-02  1.7141392348459808e-02  1.7265525691900270e-02  1.7089266970974099e-02  1.6836273449347086e-02  1.6672913019207501e-02  1.5536285729285507e-02  1.7912691892759989e-02  1.3915473612548461e-02  1.4088121135060049e-02  1.3755186359244942e-02  1.3570641396311880e-02  1.4318853514887188e-02  1.3923023316707799e-02  1.4244712275476960e-02  1.2271659124291396e-02  1.2642947818160192e-02  1.2105989825708912e-02  1.3142922396879314e-02  1.2779508528814983e-02  1.3886046705800485e-02  1.4303454267114437e-02  1.4438693869010935e-02  1.4631849440973789e-02  1.4996270021921797e-02  1.3111964728283847e-02  1.3090354037380890e-02  1.6144281564540494e-02  1.6040819805286190e-02  1.5617315112853662e-02  1.5917752383159851e-02  1.5661810634462474e-02  6.2820247819376654e-03  7.0383902013918453e-03  1.5953777538859387e-02  1.6137118482177713e-02  1.5697953199590674e-02  1.6359603395308980e-02  1.6315535984576208e-02  1.6345178361903405e-02  1.6092010545568067e-02  1.6147976925811412e-02  1.6185322856486752e-02  1.6138269732367493e-02  1.6355586417453313e-02  1.6303278483805729e-02  1.6360458280399011e-02  1.6000976409657253e-02  1.5993874648145667e-02  1.6093056087500085e-02  1.6141922585904724e-02  1.6158740264523443e-02  8.8312380984690957e-03  8.8698264975083721e-03  8.9055480735321848e-03  8.8720983880945271e-03  8.9354612600907168e-03  9.1145959657824120e-03  9.1753527565540255e-03  9.2549774852925121e-03  9.3647575561692353e-03  9.1364292487311014e-03  9.1591292952360806e-03  9.1585821989322025e-03  9.3812085066636453e-03  9.3561496071672846e-03  9.4711405381086716e-03  9.2671881990253890e-03  9.1824392100921786e-03  9.1039069552866937e-03  9.0811170620201838e-03  8.9002650781713662e-03  8.9123312151905155e-03  8.9593532857865730e-03  8.9572514369020226e-03  9.0294802829874368e-03  9.0340354647665648e-03  8.8972013336750654e-03  9.0339084408556335e-03  9.1161724439872954e-03  9.2149291774019683e-03  9.1252497583903455e-03  9.5845040526916989e-03  9.4967741982556440e-03  9.4074765318502736e-03  8.7782881699554997e-03  8.7943034168760214e-03  8.9578658570652683e-03  1.0399616469437493e-02  1.0471348614040050e-02  1.0514664193861272e-02  1.0447661075069056e-02  9.2493651148788450e-03  9.3774407536595435e-03  9.0859591442234398e-03  9.1934862733622502e-03  9.1514059193843460e-03  9.0001355682882110e-03  9.0447930648002300e-03  9.2100385190805410e-03  9.3133100531894164e-03  9.4199088441675009e-03  9.5333266481732234e-03  9.5241418633161840e-03  9.2707063651099354e-03  9.2362560940350176e-03  9.2161395627711040e-03  9.3319428344967800e-03  8.8902246249125145e-03  8.9433431713563400e-03  8.9389019252481845e-03  8.9490959735688616e-03  8.9972910184387134e-03  9.3074188570119957e-03  9.2340140529900295e-03  9.2212655792146929e-03  9.1256186106763518e-03  9.0444403179035879e-03  9.2185069416322735e-03  9.1446936035548109e-03  9.3082895834751128e-03  9.3189772270755866e-03  9.3704603826891015e-03  9.2680358708128012e-03  9.4756922282370048e-03  9.5778447390841050e-03  9.6558062501886123e-03  9.4923865576914627e-03  9.5577766360933417e-03  9.6136770231519449e-03  9.6474763234027320e-03  6.1366231936863984e-03  5.903651315