<?xml version="1.0"?>
<VTKFile type="UnstructuredGrid"  version="0.1"  >
<UnstructuredGrid>
<Piece  NumberOfPoints="6340" NumberOfCells="12376">
<Points>
<DataArray  type="Float64"  NumberOfComponents="3"  format="ascii">-0.01946000009775162 0.02081000059843063 0  -0.02024099975824356 0.02148699946701527 0  -0.02043999917805195 0.0204900000244379 0  -0.02111100032925606 0.0212980005890131 0  -0.01967599987983704 0.01989099942147732 0  -0.01931999996304512 0.02168500050902367 0  -0.01990599930286407 0.02244500070810318 0  -0.01942400075495243 0.02325000055134296 0  -0.02048099972307682 0.02324900031089783 0  -0.01884699985384941 0.02240700088441372 0  -0.008306999690830708 0.01839799992740154 0  -0.008940000087022781 0.0192280001938343 0  -0.009266999550163746 0.01829100027680397 0  -0.00990699976682663 0.01916000060737133 0  -0.02633799985051155 0.07965199649333954 0  -0.02730300091207027 0.08023300021886826 0  -0.02745500020682812 0.07944399863481522 0  -0.0270140003412962 0.07284700125455856 0  -0.02761499956250191 0.0737060010433197 0  -0.02785399928689003 0.07278800010681152 0  -0.02858000062406063 0.07336000353097916 0  -0.01306699961423874 0.09007599949836731 0  -0.01405499968677759 0.09004300087690353 0  -0.01349900010973215 0.08921100199222565 0  -0.0206300001591444 0.08489599823951721 0  -0.01962999999523163 0.08491100370883942 0  -0.02019199915230274 0.08573000133037567 0  -0.02007099986076355 0.0840739980340004 0  -0.02252200059592724 0.02494500018656254 0  -0.02150899916887283 0.02493399940431118 0  -0.02201200090348721 0.02581300027668476 0  -0.02246600016951561 0.02669399976730347 0  -0.02304399944841862 0.0258370004594326 0  -0.02099099941551685 0.02580600045621395 0  -0.02049300074577332 0.02493499964475632 0  -0.01946699991822243 0.02493499964475632 0  -0.01997699961066246 0.02579900063574314 0  -0.02201200090348721 0.02404499985277653 0  -0.02312400005757809 0.02412199974060059 0  -0.02235000021755695 0.02278999984264374 0  -0.02174800075590611 0.02206500060856342 0  -0.02149599976837635 0.02315500006079674 0  -0.02086699940264225 0.02232800051569939 0  -0.01599800027906895 0.02211299911141396 0  -0.01650900021195412 0.02122900076210499 0  -0.01549299992620945 0.02124799974262714 0  -0.01694400049746037 0.02219199948012829 0  -0.01793999969959259 0.02220799960196018 0  -0.01744600012898445 0.02308600023388863 0  0.04389199987053871 0.08370599895715714 0  0.04354299977421761 0.0827919989824295 0  0.04490099847316742 0.08311299979686737 0  0.04671400040388107 0.09538500010967255 0  0.0475430004298687 0.09578900039196014 0  0.04648299887776375 0.09628099948167801 0  0.0294209998100996 0.1042089983820915 0  0.02950900048017502 0.1032690033316612 0  0.03046499937772751 0.1037240028381348 0  0.0284620001912117 0.104654997587204 0  0.02852299995720387 0.1035130023956299 0  -0.005288000218570232 0.09922800213098526 0  -0.004222000017762184 0.09926199913024902 0  -0.004776999820023775 0.1001140028238297 0  -0.003708000062033534 0.1001439988613129 0  -0.01815599948167801 0.1000659987330437 0  -0.01862699910998344 0.09930799901485443 0  -0.0174540001899004 0.09944900125265121 0  -0.01918300054967403 0.1002470031380653 0  -0.01321499980986118 0.1066899970173836 0  -0.01335899997502565 0.1076380014419556 0  -0.01412499975413084 0.1068219989538193 0  -0.009956999681890011 0.09809800237417221 0  -0.008921000175178051 0.0981609970331192 0  -0.009476000443100929 0.09901099652051926 0  -0.0109869996085763 0.09803199768066406 0  -0.01043100003153086 0.09718400239944458 0  -0.01146099995821714 0.09711900353431702 0  -0.01368500012904406 0.1004600003361702 0  -0.01419899985194206 0.1012739986181259 0  -0.01474899984896183 0.100380003452301 0  -0.01257899962365627 0.09880699962377548 0  -0.01361900009214878 0.09874500334262848 0  -0.01304799970239401 0.09790600091218948 0  0.01369800046086311 0.09480799734592438 0  0.0147510003298521 0.09480100125074387 0  0.01422000024467707 0.09565500169992447 0  0.007996000349521637 0.07867400348186493 0  0.00848700013011694 0.07780499756336212 0  0.009047999978065491 0.07866600155830383 0  -0.008039999753236771 0.01752999983727932 0  -0.007255999837070704 0.01775600016117096 0  -0.00887100026011467 0.01739900000393391 0  -0.009739000350236893 0.01726200059056282 0  -0.01322999969124794 0.01711999997496605 0  -0.01346699986606836 0.01818699948489666 0  -0.01406900025904179 0.01728999987244606 0  -0.01267500035464764 0.01802399940788746 0  -0.01268499996513128 0.01904099993407726 0  -0.01188699994236231 0.01821699924767017 0  -0.0122060002759099 0.0219500008970499 0  -0.01268600020557642 0.02099400013685226 0  -0.01177600026130676 0.02105600014328957 0  -0.01134399976581335 0.02021699957549572 0  -0.0108040003105998 0.02106400020420551 0  -0.01225200016051531 0.02005800046026707 0  -0.01313100010156631 0.02194399945437908 0  -0.01453300006687641 0.02114499919116497 0  -0.01501199975609779 0.02208800055086613 0  -0.0140599999576807 0.02200499922037125 0  -0.00940299965441227 0.02010600082576275 0  -0.01104499958455563 0.03088000044226646 0  -0.01154599990695715 0.03000799939036369 0  -0.01057799998670816 0.02997799962759018 0  -0.005793000105768442 0.02976500056684017 0  -0.006250000093132257 0.0306829996407032 0  -0.006744999904185534 0.02981800027191639 0  -0.00848000030964613 0.02018499933183193 0  -0.00610999995842576 0.01966799981892109 0  -0.007048999890685081 0.01949699968099594 0  -0.006318000145256519 0.01882700063288212 0  -0.006407999899238348 0.01799999922513962 0  -0.005470000207424164 0.01827000081539154 0  0.04847199842333794 0.09138999879360199 0  0.04936299845576286 0.09094099700450897 0  0.04910700023174286 0.09207200258970261 0  0.04801600053906441 0.09217499941587448 0  0.01623800024390221 0.0591370016336441 0  0.0172749999910593 0.05905799940228462 0  0.01680500060319901 0.05994199961423874 0  0.02980699948966503 0.04440600052475929 0  0.03027099929749966 0.04336699843406677 0  0.03075800091028214 0.04409699887037277 0  0.03208399936556816 0.04863100126385689 0  0.03300699964165688 0.04797700047492981 0  0.03339000046253204 0.04873599857091904 0  0.03194399923086166 0.05210400000214577 0  0.03096199966967106 0.05215299874544144 0  0.03148199990391731 0.05122600123286247 0  0.03099899925291538 0.05039000138640404 0  0.03204600140452385 0.05030300095677376 0  0.03046300075948238 0.05130299925804138 0  0.02995200082659721 0.05221899971365929 0  0.02993299998342991 0.05049100145697594 0  0.02935199998319149 0.04970899969339371 0  0.02886799909174442 0.05058199912309647 0  0.02827900089323521 0.04979399964213371 0  0.04594599828124046 0.09373600035905838 0  0.04485499858856201 0.09374599903821945 0  0.04539899900555611 0.09290599822998047 0  0.0443280003964901 0.09288399666547775 0  0.007519000209867954 0.02486100047826767 0  0.008303999900817871 0.02532500028610229 0  0.007538999896496534 0.02592400088906288 0  0.00839299988001585 0.0262839999049902 0  0.02780500054359436 0.05066899955272675 0  0.02370000071823597 0.05265799909830093 0  0.02322899922728539 0.0535379983484745 0  0.02265099994838238 0.05273199826478958 0  0.02427699975669384 0.05346500128507614 0  0.03047999925911427 0.05307300016283989 0  0.01884300075471401 0.03581399843096733 0  0.01793999969959259 0.03567000105977058 0  0.01835799962282181 0.03478600084781647 0  0.01328600011765957 0.0409960001707077 0  0.01231900043785572 0.04099899902939796 0  0.01278799958527088 0.04011600092053413 0  0.0118199996650219 0.0401189997792244 0  0.0113519998267293 0.04100099951028824 0  0.01131800003349781 0.03923999890685081 0  0.01228899974375963 0.03923700004816055 0  0.01281800027936697 0.04187899827957153 0  -0.02842400036752224 0.07425399869680405 0  -0.02729699946939945 0.07454299926757812 0  -0.02828199975192547 0.07507099956274033 0  -0.02663400024175644 0.07375399768352509 0  -0.02621299959719181 0.07458800077438354 0  -0.02516200020909309 0.07463899999856949 0  -0.02562100067734718 0.07545500248670578 0  -0.02460299991071224 0.07382799685001373 0  -0.02413200028240681 0.07467400282621384 0  -0.02463099919259548 0.07549300044775009 0  -0.02870200015604496 0.07242800295352936 0  -0.01974599994719028 0.08656200021505356 0  -0.02074999921023846 0.08654599636793137 0  -0.01889799907803535 0.09586700052022934 0  -0.019896000623703 0.09587399661540985 0  -0.01934099942445755 0.0950239971280098 0  -0.02033399976789951 0.09503600001335144 0  -0.01977800019085407 0.09418000280857086 0  -0.01768900081515312 0.09859800338745117 0  -0.016720000654459 0.0986270010471344 0  -0.01636100001633167 0.09949400275945663 0  -0.01448300015181303 0.08918099850416183 0  -0.01197400037199259 0.0825439989566803 0  -0.01097800023853779 0.08256100118160248 0  -0.01153699960559607 0.08338200300931931 0  -0.0111109996214509 0.08422400057315826 0  -0.01054900046437979 0.08340100198984146 0  -0.01586800068616867 0.08080500364303589 0  -0.01631800085306168 0.07996200025081635 0  -0.01531899999827147 0.0799809992313385 0  -0.01432000007480383 0.07999999821186066 0  -0.0147709995508194 0.07915399968624115 0  -0.01907099969685078 0.08409000188112259 0  -0.01851899921894073 0.08326499909162521 0  -0.01951999962329865 0.08324799686670303 0  -0.02052400074899197 0.08323200047016144 0  -0.02516599930822849 0.07631900161504745 0  -0.02569199912250042 0.07883399724960327 0  -0.0252860002219677 0.07967600226402283 0  -0.02353299967944622 0.02482699975371361 0  -0.02393000014126301 0.02551000006496906 0  -0.02422799915075302 0.02620399929583073 0  -0.02454899996519089 0.02695200033485889 0  -0.02346500009298325 0.0267609991133213 0  -0.01997300051152706 0.02408800087869167 0  -0.01893699914216995 0.02407599985599518 0  -0.0210110004991293 0.02406799979507923 0  -0.02272499911487103 0.02343600057065487 0  -0.01745099946856499 0.01839900016784668 0  -0.01707400009036064 0.01916399970650673 0  -0.01821999996900558 0.01875000074505806 0  -0.0166619997471571 0.01803800091147423 0  -0.01839799992740154 0.02320599928498268 0  -0.0164599996060133 0.023
[...]
<PointData  Scalars="pressure"> 
<DataArray  type="Float64"  Name="pressure"  format="ascii">4.4137381354482509e-02  4.4337488840869278e-02  4.4237573064838845e-02  4.4419926045019514e-02  4.4051984082526419e-02  4.4255851572858954e-02  4.4459515355633375e-02  4.4563257425499631e-02  4.4664987986141186e-02  4.4331202130974461e-02  4.1335004335076385e-02  4.1601703438599612e-02  4.1491873872138811e-02  4.1792146391204314e-02  5.5122450092828720e-02  5.5102999415978286e-02  5.5050355283163842e-02  5.4732660281245349e-02  5.4859668891229382e-02  5.4653041848650538e-02  5.4715514823910606e-02  4.8045997913157584e-02  4.9220810429124164e-02  4.9157227858836444e-02  5.4559814692426802e-02  5.4343994263880854e-02  5.4408321503020232e-02  5.4496320504838512e-02  4.5127789292318005e-02  4.5062934031673219e-02  4.5258109638744881e-02  4.5440979249144302e-02  4.5312459662258005e-02  4.5202969753939899e-02  4.4996732492647358e-02  4.4932330792153148e-02  4.5155321239945430e-02  4.4932629307956960e-02  4.5054799494035506e-02  4.4774388732026417e-02  4.4602713342957345e-02  4.4736119794741895e-02  4.4540339029035043e-02  4.3878680430664209e-02  4.3757237089532997e-02  4.3584831351963768e-02  4.4037724177346284e-02  4.4177300108060348e-02  4.4315079189567189e-02  4.5525079100501825e-02  4.5200356185415382e-02  4.6309001407917882e-02  4.5601334921104922e-02  4.5128656926729335e-02  4.5640779289211543e-02  6.3140507039352048e-02  6.2486162347235322e-02  6.2180420449725632e-02  6.3883700075289943e-02  6.3181601916711114e-02  3.3967928521912542e-02  3.4416009155229889e-02  3.5025300695282174e-02  3.5701136278320014e-02  4.4131260744429225e-02  4.4936338735832075e-02  4.3917402004995838e-02  4.4716172889415956e-02  4.1979442311125346e-02  4.2707813297252616e-02  4.2041922306194225e-02  3.5927041642943386e-02  3.4889521412733590e-02  3.5544569627610198e-02  3.7171064143167981e-02  3.6770534140037447e-02  3.8186569566424619e-02  4.0198534168370138e-02  4.0711278946041769e-02  4.1219892490119744e-02  3.9028701469967834e-02  4.0288720700268968e-02  3.9896627006622068e-02  4.6210721170398913e-02  4.7871480352677111e-02  5.0029729925774709e-02  2.8372962227259796e-04  5.2031380188202053e-04  2.4026724812217098e-04  4.1191650142229558e-02  4.1132866388511012e-02  4.1295255340523439e-02  4.1461325191951608e-02  4.2473235316045382e-02  4.2624605892476047e-02  4.2696897738260131e-02  4.2381130264083119e-02  4.2493965745998598e-02  4.2207048870264441e-02  4.3171853445557684e-02  4.2965208679245762e-02  4.2792265704179537e-02  4.2440484874308015e-02  4.2599526958544680e-02  4.2612231933117112e-02  4.3341439882284172e-02  4.3381655483464565e-02  4.3714559272093487e-02  4.3527247487814336e-02  4.1993491465573518e-02  4.6741447578673788e-02  4.6410624692690333e-02  4.6324201338991490e-02  4.5562967989912072e-02  4.5983599815424096e-02  4.5740482462697192e-02  4.1881719908063955e-02  4.1620876987110714e-02  4.1505039128850264e-02  4.1362031417268186e-02  4.1181599261469255e-02  4.1363034318926385e-02  4.5481761273477389e-02  4.5773958249617538e-02  4.5257281724928627e-02  4.5482692984139102e-02  2.2224550490702558e-02  2.3346492463164607e-02  2.1771750920816180e-02  4.0335209168016681e-02  4.0259153499990742e-02  4.0249983274317697e-02  4.0280840835507890e-02  4.0160743459704891e-02  4.0304554835327015e-02  3.9596682238605387e-02  3.9312085992275841e-02  3.9697748475497383e-02  3.9777609071658428e-02  3.9998416273760974e-02  3.9399267046274250e-02  3.8930436065662800e-02  3.9440696163332650e-02  3.9417166658619537e-02  3.9011698284939736e-02  3.9002017253204534e-02  4.6045656578918751e-02  4.6524657434799332e-02  4.6262191691796808e-02  4.6693990770198777e-02  4.3011090118145412e-02  4.2914826804450669e-02  4.3088296080714329e-02  4.2930824288520263e-02  3.8515948965135598e-02  3.5020599977368200e-02  3.4062308835512756e-02  3.4248507115424549e-02  3.4900282641383062e-02  3.8849919501010730e-02  4.0878448052143579e-02  4.0955719477175904e-02  4.0996814720990780e-02  3.9478249199429848e-02  3.9481367034475849e-02  3.9936748217370914e-02  3.9984304398951766e-02  3.9528495690472711e-02  4.0454483509174757e-02  4.0368827847047234e-02  3.8961689671814251e-02  5.4881297382714529e-02  5.4964649683685390e-02  5.4997853002383662e-02  5.4879950902222016e-02  5.4958472368867570e-02  5.4906700783774194e-02  5.4994859049820988e-02  5.4752609329822621e-02  5.4772287567649999e-02  5.4938686107931518e-02  5.4605646822665416e-02  5.4153664259063337e-02  5.4331291606985771e-02  4.7877994044622812e-02  4.8586198207342890e-02  4.8989445654147652e-02  4.9622509719984220e-02  4.9947981354523933e-02  4.4647390398529212e-02  4.3767270521256216e-02  4.2919608012212979e-02  5.0255389514386593e-02  4.5621349163412317e-02  4.3539422760927295e-02  4.5274448789810809e-02  4.5053918099566541e-02  4.3318111334972424e-02  5.0841923850692375e-02  5.1041397912523025e-02  4.9738970989852548e-02  4.8216037101393175e-02  4.8501400785000426e-02  5.4148130506157376e-02  5.3797619038287947e-02  5.4265871681615299e-02  5.4533952777544248e-02  5.5076724089370060e-02  5.5129413264105885e-02  5.5154603382178341e-02  4.5206274068958552e-02  4.5354606526921803e-02  4.5483885175281798e-02  4.5615463727301159e-02  4.5491873014749350e-02  4.4784312748878022e-02  4.4697456168457009e-02  4.4863620988258329e-02  4.4909214200709320e-02  4.3515204420862860e-02  4.3531008483223887e-02  4.3683821377736139e-02  4.3344531412277572e-02  4.4449295392832863e-02  4.4185630838247253e-02  4.4369623720923755e-02  4.4484772767649373e-02  4.6802663833058880e-02  4.7121638492234462e-02  4.7153020381652817e-02  4.3000643989533432e-02  4.3560918313689467e-02  4.3878803598653975e-02  4.3995896677909797e-02  4.3448598037189874e-02  4.3133422102687204e-02  4.4204773867615822e-02  4.4531842143956203e-02  4.4650336636947507e-02  4.4856929846733153e-02  4.4373168108918996e-02  4.4504850399042367e-02  4.6350751481176809e-02  4.6228294596546593e-02  4.6548705874897865e-02  4.7049290033688136e-02  4.7341330597849229e-02  4.6859053367824088e-02  4.5883658549919333e-02  4.6924070871128008e-02  4.7705111819801867e-02  4.7390542341973978e-02  4.6738018168308776e-02  4.6450731901469949e-02  4.6036107832930565e-02  4.7162314619662804e-02  4.6823299733612017e-02  4.7251136945528342e-02  4.6908097691919504e-02  4.5814731591098126e-02  4.6132233209317079e-02  4.6662982993729847e-02  4.7266958438324881e-02  4.7899148528591298e-02  4.7426383802400350e-02  4.6297737961109774e-02  6.5171968618645867e-02  6.5622014419356445e-02  6.5137699755766817e-02  6.3559639568691442e-02  6.3909549266456978e-02  6.4215799331450760e-02  6.4544745050753138e-02  3.4125634187239934e-02  3.5017426595487892e-02  3.4694100692459151e-02  3.4058014072495750e-02  3.3577137944802049e-02  4.1204512762187603e-02  3.9195587671467705e-02  4.1129779677865776e-02  3.6449321169601270e-02  4.3801265018470301e-02  4.1663873347157473e-02  4.1620874885694596e-02  4.1215582452032808e-02  4.1851521134973896e-02  4.1665703464245238e-02  4.1483134330428675e-02  4.1531744672409686e-02  4.1044846801665744e-02  4.0830185934286008e-02  3.6410015489462703e-02  3.7780423482877398e-02  3.6202732586576719e-02  4.0244351660520788e-02  3.9916031074789637e-02  4.1707616958752060e-02  4.1286376509357743e-02  3.5531790242652427e-02  3.5619640422317599e-02  3.6131379137653817e-02  4.0718945592410544e-02  4.0549513138331814e-02  4.0058590200522826e-02  3.9249881696416716e-02  3.9460021295264769e-02  3.6574995825317563e-02  3.7769802550767187e-02  3.7416798348146485e-02  3.8527586092973187e-02  3.8332839412797311e-02  3.7474206689131755e-02  3.9280092534928410e-02  4.1254712384088336e-02  4.1503329289174294e-02  4.0807257987463319e-02  3.8524623903238402e-02  5.0705511059325858e-02  4.9046277866859771e-02  5.0441544938682623e-02  4.8768493090775453e-02  4.4857652574416547e-02  4.4214909607713043e-02  4.6157554862537885e-02  4.6745950602185671e-02  6.2566907678729980e-02  6.1665091540389017e-02  6.2914609423535620e-02  6.2129881464978151e-02  6.1487399259306366e-02  6.0201026262681000e-02  6.1600162501344660e-02  6.0945550929363747e-02  6.0940158682786072e-02  5.9640327147646902e-02  6.6443226233207392e-02  6.5995027523740646e-02  6.6488772695037571e-02  6.5916060435980334e-02  6.6312972411461280e-02  6.4051825088057832e-02  6.3838890576455809e-02  6.3119493012478198e-02  5.6998044910088572e-02  5.5772161245605502e-02  5.6832806408948763e-02  5.0228299803599309e-02  5.1611695549072897e-02  5.1785535680140320e-02  4.6479169512910173e-02  4.9984581682365338e-02  4.8497909544216802e-02  4.4701330206081691e-02  4.6775704078553942e-02  5.0423598920940609e-02  9.4548278852564505e-04  1.3548559479102176e-03  1.4817798243753899e-03  9.9181710953420710e-04  1.2004231291978945e-03  6.3458850769509620e-03  6.8191451086614951e-03  5.4360166939700361e-03  2.4504769285779542e-02  2.4881292268362297e-02  2.5978969003910370e-02  3.2405214676852576e-02  3.1386192593567258e-02  3.2533884569961723e-02  3.1548341474385816e-02  3.4039277536576033e-02  3.2997142717724220e-02  3.3370072949181845e-02  4.7046979124893834e-02  4.7414411856503177e-02  4.7329549743855892e-02  1.7864682876915752e-02  1.8666429793584627e-02  1.9392248658146892e-02  1.5091032411546162e-02  1.6190592392955602e-02  1.4647927972746284e-02  1.3077624075953684e-02  1.4327936706933282e-02  4.8092381575421117e-02  4.4731127727958307e-02  4.6346141388186643e-02  4.2890530230839732e-02  3.2304771260264604e-02  3.1434713191400177e-02  3.1918977081226763e-02  3.3040623280175575e-02  3.2766263281106697e-02  3.3419987693029320e-02  3.3640369366777001e-02  3.3907567075154160e-02  3.4085374856709039e-02  3.5380815660521314e-02  3.4631036015816540e-02  3.5468702521551591e-02  3.4681950946090570e-02  5.2201768562728373e-02  5.0646748420332545e-02  5.3528541585460644e-02  5.2496196483515861e-02  5.0547941828433487e-02  5.1869912552735944e-02  3.8504245827103462e-02  3.6290324565255980e-02  3.4183260431512374e-02  3.1829461978242976e-02  4.4994029180557601e-02  4.2713561852453119e-02  3.4159022080072585e-02  3.8659468473578103e-02  4.3827856823900571e-02  5.1493929858181443e-02  5.6989263642407438e-02  5.8120679047579948e-02  5.5970353053660216e-02  5.4508209910468799e-02  5.1901477507794717e-02  1.9223623219880026e-04  5.6134189297460391e-04  2.0105861323067853e-05  0.0000000000000000e+00  4.3078315415889801e-05  6.4329027644244308e-04  4.0770502756372548e-03  2.4497447770817637e-03  3.0086413474990359e-03  4.3287547398675061e-02  4.3127887925788054e-02  4.2918061452314853e-02  4.3071332777587880e-02  4.2819246238412309e-02  4.2203812011978502e-02  4.2040061706688170e-02  4.2120201478999184e-02  4.1954468678096678e-02  4.1929462662761305e-02  4.1697158808340996e-02  4.1666016131050553e-02  4.6464118496588852e-02  4.6067608050058613e-02  4.6121821492999454e-02  4.6490651468159214e-02  4.5884872556693969e-02  4.5433405222691937e-02  4.5757228900238166e-02  4.5303969941736993e-02  4.5616862280511712e-02  4.5170100286759579e-02  4.5785488080855738e-02  4.3569765578247197e-02  4.3855441412252845e-02  4.3537275063429463e-02  4.4172796369561111e-02  4.4143497819730447e-02  4.1498675181702173e-02  4.1842587965188020e-02  5.4563019541794426e-02  5.4405355718441989e-02  5.3912413887479804e-02  5.4192108537836993e-02  5.4037865131631550e-02  4.2027182357540535e-02  4.3269546129521823e-02  4.2911299352819170e-02  4.3494979295800755e-02  4.2980165947253873e-02  4.3805490914955961e-02  3.6802846819887276e-02  3.6542315249750511e-02  3.6037808442768313e-02  4.5428786016959814e-02  3.7317359849842600e-02  3.7000036231755080e-02  3.7792268011738024e-02  4.5620657998627072e-02  4.5915597687925434e-02  4.6232815887564553e-02  4.5842218501496099e-02  4.6105487927686262e-02  3.9724520169504160e-02  3.9948241945371749e-02  3.9756567226969311e-02  3.9942651772861708e-02  3.9816576110975783e-02  3.9480377753699739e-02  3.9543398533892563e-02  3.6634796198208495e-02  3.7318497692980693e-02  3.7110396297056036e-02  3.7940917091716764e-02  3.7544286848472788e-02  3.7803950072262525e-02  3.8227660569353533e-02  3.8788650254159916e-02  3.8712830844579181e-02  3.8986235591549026e-02  3.8754354587847518e-02  3.8417103673973121e-02  3.8597080721355655e-02  3.6795671585269696e-02  3.7427056330704631e-02  3.6659260720610806e-02  3.5806201777431219e-02  3.6483561169032612e-02  3.5647406441329861e-02  3.8666456190232554e-02  3.8816116797434838e-02  3.8701407898970253e-02  3.8184537208483436e-02  3.8863853054685774e-02  1.5936950369845101e-02  1.4468883603387724e-02  1.4442162285076131e-02  2.6391828069118401e-02  2.6588989227893836e-02  2.7757317402641677e-02  2.5662163432948207e-02  7.3152164857534785e-03  6.1248725099836074e-03  7.1031642129507702e-03  6.4296446986241360e-03  7.6976932540160428e-03  8.7051947059882950e-03  2.5016641571732938e-02  2.6281182156776633e-02  2.5035504076705670e-02  2.3765493752881305e-02  2.5071710522041886e-02  2.1160627924467677e-02  2.1112609733238349e-02  1.9765717552586513e-02  2.3737665461065489e-02  2.2445672379496719e-02  1.2576558807714279e-02  1.0917234009138403e-02  1.1491040782262867e-02  1.2114221452200570e-02  1.3770498125868814e-02  1.4282230859890145e-02  7.5686151034738622e-03  8.9789025403917491e-03  8.3991719670580556e-03  3.2332206352333553e-02  3.4481261877592186e-02  3.2606628078447150e-02  1.3055411527904584e-02  1.4644852504793547e-02  4.0253036985754900e-02  3.9782413411890510e-02  4.0022240227521926e-02  3.9940211019909244e-02  3.9515348260034770e-02  4.0165632876603796e-02  4.0053720317767480e-02  4.0115123549611727e-02  4.0034768006355373e-02  4.0055484662351738e-02  3.9894151547175329e-02  3.9942303283698424e-02  3.9922357127669159e-02  3.9702976412837376e-02  3.9725039767900858e-02  3.8540502836892698e-02  3.7964594522753858e-02  3.6489431365915315e-02  3.5641833463046460e-02  3.5920947615601440e-02  3.9991174662745002e-02  4.0131040067667566e-02  3.9001220680369229e-02  3.9767937000509276e-02  4.6427592454866148e-02  4.2841225802301347e-02  4.2765104106837301e-02  4.2715567907032660e-02  4.2505514056735930e-02  4.2619406380090180e-02  4.2556274435531546e-02  4.2737694767272981e-02  4.3904327203838328e-02  4.4072528530654569e-02  4.4080320338887674e-02  4.3911007477581095e-02  4.3754988127150458e-02  4.3719842255393333e-02  4.4180205690468627e-02  4.4382962782718645e-02  4.4270722675693167e-02  4.4244679548535115e-02  4.4497462399650412e-02  4.4607550564725040e-02  4.4336817404419686e-02  4.4107871542578635e-02  3.3906063421249688e-02  3.3756451677818891e-02  3.2835121882961678e-02  3.6455813459828415e-02  3.5685826226635214e-02  3.6548798811079232e-02  3.6626452420700631e-02  3.7297369727973755e-02  3.5799963364862623e-02  3.8306346593107131e-02  3.7655112516810571e-02  3.7733086552621614e-02  2.9222224266876321e-02  2.7970845333712607e-02  2.8975369948117127e-02  3.3820094762751336e-02  3.3931177468876049e-02  3.4757904945381474e-02  4.1029016998688737e-02  4.1077472053717971e-02  4.0969163785211024e-02  4.0918705892683586e-02  4.0974590289130225e-02  4.0876176812620763e-02  4.0934550460486607e-02  4.1026134681299585e-02  4.0862276590897674e-02  4.0553886347276608e-02  4.0554750003252815e-02  4.0650406591391887e-02  4.0625477787140901e-02  4.0532553023314433e-02  4.0595738274536171e-02  4.0564269753656748e-02  4.0647285948861134e-02  4.0566844572562051e-02  4.0704644439046866e-02  4.0736344549845864e-02  4.0718430692860498e-02  4.0827006696999360e-02  4.0712451017849767e-02  4.0655768721009705e-02  4.0738682747492823e-02  4.2201226443090156e-02  4.1857620342167896e-02  4.2103469732814466e-02  4.1705305216380696e-02  3.6878496549097618e-02  3.7145887103871178e-02  3.6333498443325424e-02  3.6646360035057342e-02  3.7426190295511835e-02  4.1104167182119795e-02  3.9923083121749664e-02  3.9498442545532308e-02  3.8128880938169060e-02  3.7639952035888047e-02  3.7091499925705623e-02  3.7831567241072159e-02  3.7246431569596145e-02  3.7964275773125930e-02  3.8486716724067824e-02  3.8997034798615042e-02  3.9046379861337500e-02  3.8404793307713854e-02  3.8948092262954322e-02  5.3795409213986511e-02  5.3248811821274326e-02  5.3126924198391649e-02  2.2116340313432837e-02  2.3085291332676512e-02  2.0420944799926150e-02  5.4937762310576670e-02  5.5061402167321812e-02  5.5036418474828749e-02  5.4698346379606452e-02  5.1950396577625221e-02  5.2219632930331508e-02  5.1432970979567214e-02  5.1602499186815927e-02  5.2362190138010842e-02  5.0516117983107130e-02  5.1734277901659242e-02  5.2939067134542925e-02  5.2755748263726990e-02  5.3108242288770910e-02  5.4122787141352456e-02  5.2971319212646577e-02  5.2673690176978497e-02  5.2666119091723668e-02  5.3839426546769709e-02  5.4105587444607708e-02  4.5439522027744476e-02  4.5721613499296362e-02  4.6623877129001672e-02  4.6452252235455009e-02  4.7084295909691543e-02  4.7532573546402557e-02  4.8202113367544583e-02  4.9218421547113866e-02  4.8800973521362978e-02  4.9874026563350798e-02  4.9323929706116723e-02  5.0315493488458103e-02  4.7952626728719389e-02  4.5391167462394612e-02  3.9573973967284452e-02  4.1445833929682888e-02  4.0344888891458118e-02  3.8438574100573261e-02  4.6502622334058649e-02  4.4732366644204546e-02  4.6246386593853855e-02  3.6010607844577040e-02  3.8510866939136863e-02  3.6223098554320758e-02  4.0562351254644365e-02  3.8108094852033716e-02  4.4392851586442364e-02  4.3287740213768161e-02  4.2110972382226955e-02  4.3720740859121386e-02  4.7899747106189570e-02  4.0820758810792182e-02  4.1334589855757914e-02  5.2705208851666949e-02  5.2547253175115195e-02  5.0008802501033844e-02  5.1221098765849862e-02  5.0142785538560386e-02  2.1430993422979168e-02  2.4130277396939223e-02  5.1449516600904799e-02  5.2293834755340635e-02  5.0487490090366426e-02  5.4318201455724704e-02  5.3934953010836229e-02  5.3822165457538075e-02  5.4762163072332996e-02  5.4507816476042976e-02  5.4795085473179739e-02  5.3636456656342160e-02  5.4352337762697149e-02  5.3953321968791677e-02  5.4046819495746884e-02  5.5097263233163871e-02  5.5049989834483788e-02  5.5098756901497514e-02  5.5066079305733102e-02  5.5149168400048763e-02  4.5664883690587924e-02  4.5750135203776916e-02  4.5822314182986448e-02  4.5779137144791683e-02  4.5875647721914450e-02  4.3946695654237623e-02  4.3858417176640789e-02  4.3665357369223147e-02  4.3440047474753031e-02  4.3928847960989545e-02  4.3856682615572247e-02  4.4040805936483213e-02  4.6478357561469792e-02  4.6566080059388427e-02  4.6593719657122029e-02  4.6423057247219207e-02  4.6283167189294455e-02  4.6158060657061725e-02  4.6186310530707118e-02  4.6045212122955613e-02  4.6090533630820295e-02  4.6321603187230748e-02  4.6246411050010809e-02  4.6509913051781981e-02  4.6407364815281543e-02  4.5997669071631095e-02  4.6611632201683455e-02  4.6654810347024116e-02  4.6757692354328952e-02  4.6533808299137676e-02  4.6592286707627106e-02  4.6510048235993119e-02  4.6420960657579086e-02  4.5367060096918266e-02  4.5339526397663102e-02  4.4688084965849063e-02  4.5597804561075657e-02  4.5291292358453132e-02  4.5442862365306348e-02  4.5696426929954251e-02  4.7143716225845303e-02  4.7447508133879129e-02  4.6774170502412581e-02  4.7095122948534164e-02  4.7013748535560569e-02  4.6448144688621164e-02  4.6482103011376286e-02  4.6905666882740144e-02  4.6979105059152079e-02  4.7190672393496759e-02  4.7377243994608867e-02  4.7181935902382052e-02  4.7313416789184604e-02  4.7193962027852074e-02  4.7054747074141264e-02  4.7314918864030685e-02  4.5243068664951709e-02  4.4924629898880887e-02  4.5193824969057793e-02  4.5491191319418964e-02  4.5133793256576162e-02  4.4435517834243932e-02  4.4874048632433931e-02  4.4550149384538204e-02  4.5725179003469459e-02  4.5777581143834310e-02  4.5646515291009805e-02  4.4974584520950593e-02  4.4119968262940595e-02  4.5547702501854977e-02  4.5099715045979975e-02  4.5209678408602356e-02  4.4978841467134989e-02  4.2843655150178794e-02  4.2430683667318836e-02  4.3263541728569832e-02  4.3771095456218261e-02  4.3349821226461534e-02  4.3670687637663186e-02  4.4716134273124035e-02  4.488496096