<?xml version="1.0"?>
<VTKFile type="UnstructuredGrid"  version="0.1"  >
<UnstructuredGrid>
<Piece  NumberOfPoints="6340" NumberOfCells="12376">
<Points>
<DataArray  type="Float64"  NumberOfComponents="3"  format="ascii">-0.01915300078690052 0.02054399996995926 0  -0.01978700049221516 0.02114799991250038 0  -0.02002000063657761 0.0201799999922514 0  -0.02051899954676628 0.02084399946033955 0  -0.01938699930906296 0.01962899975478649 0  -0.01898800022900105 0.02141200006008148 0  -0.01944399997591972 0.02209899947047234 0  -0.01899099908769131 0.02292699925601482 0  -0.01986400038003922 0.02277299948036671 0  -0.01854000054299831 0.02214499935507774 0  -0.008454999886453152 0.01780899986624718 0  -0.009105999954044819 0.01868800073862076 0  -0.009437999688088894 0.01774800010025501 0  -0.01009500026702881 0.01866599917411804 0  -0.02516300044953823 0.07096999883651733 0  -0.02609200030565262 0.07123800367116928 0  -0.02623499929904938 0.07046999782323837 0  -0.02539500035345554 0.06466799974441528 0  -0.02604500018060207 0.06526300311088562 0  -0.02619599923491478 0.06438399851322174 0  -0.0269399993121624 0.064690001308918 0  -0.01298599969595671 0.0833899974822998 0  -0.01383200008422136 0.08317700028419495 0  -0.01321799959987402 0.08265499770641327 0  -0.01950900070369244 0.07738599926233292 0  -0.01855099946260452 0.07766599953174591 0  -0.01908200047910213 0.07824499905109406 0  -0.01898499950766563 0.07680000364780426 0  -0.02139200083911419 0.02395600080490112 0  -0.0205910000950098 0.0241909995675087 0  -0.02091399952769279 0.024855000898242 0  -0.02119800075888634 0.02553300000727177 0  -0.02173000015318394 0.02462700009346008 0  -0.02010500058531761 0.02509500086307526 0  -0.01975799910724163 0.02435900084674358 0  -0.01891000010073185 0.02450799942016602 0  -0.01927199959754944 0.02524800039827824 0  -0.02106500044465065 0.02327400073409081 0  -0.02193900011479855 0.02307399921119213 0  -0.02143999934196472 0.02206999994814396 0  -0.02099299989640713 0.02147500030696392 0  -0.02070900052785873 0.02253800071775913 0  -0.0202459990978241 0.02184999920427799 0  -0.01602800004184246 0.02193699963390827 0  -0.01652600057423115 0.02105399966239929 0  -0.0155840003862977 0.0210570003837347 0  -0.01689900085330009 0.02202899940311909 0  -0.01776299998164177 0.02199500054121017 0  -0.01728999987244606 0.02288299985229969 0  0.03829199820756912 0.07642100006341934 0  0.03815099969506264 0.07554599642753601 0  0.03930100053548813 0.07562000304460526 0  0.03893100097775459 0.08663599938154221 0  0.039597999304533 0.08685799688100815 0  0.03852900117635727 0.08730900287628174 0  0.02131300047039986 0.09457799792289734 0  0.02159300073981285 0.09388600289821625 0  0.02236600033938885 0.09413400292396545 0  0.02034500055015087 0.09498699754476547 0  0.02064399980008602 0.09414999932050705 0  -0.009166999720036983 0.09105399996042252 0  -0.008364000357687473 0.09134099632501602 0  -0.00902200024574995 0.09183499962091446 0  -0.008206999860703945 0.0921270027756691 0  -0.01927400007843971 0.08970899879932404 0  -0.01950599998235703 0.08909700065851212 0  -0.01855899952352047 0.08938399702310562 0  -0.02016600035130978 0.0896729975938797 0  -0.01715599931776524 0.09494400024414062 0  -0.01753200031816959 0.09557899832725525 0  -0.01786700077354908 0.09490200132131577 0  -0.01230799965560436 0.08947800099849701 0  -0.01154999993741512 0.08966899663209915 0  -0.01220200024545193 0.09017600119113922 0  -0.01308100018650293 0.08929599821567535 0  -0.01242899987846613 0.08878999948501587 0  -0.0132020004093647 0.0886090025305748 0  -0.01579999923706055 0.090597003698349 0  -0.01641199924051762 0.09108500182628632 0  -0.01661200076341629 0.09039899706840515 0  -0.01451000012457371 0.08961399644613266 0  -0.01531300041824579 0.0894320011138916 0  -0.01465300004929304 0.08893399685621262 0  0.009015999734401703 0.08910900354385376 0  0.009975999593734741 0.08901199698448181 0  0.009310999885201454 0.08968000113964081 0  0.007275000214576721 0.07785700261592865 0  0.007859000004827976 0.07704299688339233 0  0.008233999833464622 0.07775899767875671 0  -0.008179999887943268 0.0169099997729063 0  -0.00738399988040328 0.01709900051355362 0  -0.00903099961578846 0.01681699976325035 0  -0.009917999617755413 0.01672100089490414 0  -0.01346000004559755 0.01676999963819981 0  -0.01368100009858608 0.0178689993917942 0  -0.01427900046110153 0.01698300056159496 0  -0.01289799995720387 0.01766199991106987 0  -0.01290799956768751 0.01870300062000751 0  -0.01210100017488003 0.01781399920582771 0  -0.01240899972617626 0.02164600044488907 0  -0.01288899965584278 0.02069400064647198 0  -0.01198699977248907 0.020711999386549 0  -0.01154999993741512 0.01982899941504002 0  -0.01100399997085333 0.02066400088369846 0  -0.01246900018304586 0.01971800066530704 0  -0.01331499963998795 0.02168400026857853 0  -0.01469499990344048 0.02093500085175037 0  -0.01511599961668253 0.0218959990888834 0  -0.0142230000346899 0.02178999967873096 0  -0.009581999853253365 0.01960700005292892 0  -0.01118199992924929 0.03069699928164482 0  -0.01168200001120567 0.02983199991285801 0  -0.01073499955236912 0.02975600026547909 0  -0.005911000072956085 0.02928799949586391 0  -0.006380999926477671 0.03024699911475182 0  -0.00688599981367588 0.02938899956643581 0  -0.008636999875307083 0.01964199915528297 0  -0.006221999879926443 0.01899199932813644 0  -0.007174999918788671 0.0188669990748167 0  -0.006432000081986189 0.01814300008118153 0  -0.006523000076413155 0.01730399951338768 0  -0.005570000037550926 0.01752999983727932 0  0.04130300134420395 0.08338499814271927 0  0.04212399944663048 0.08278100192546844 0  0.04178699851036072 0.08394700288772583 0  0.04080000147223473 0.08418499678373337 0  0.01512499991804361 0.05778900161385536 0  0.01612100005149841 0.05755899846553802 0  0.01570199988782406 0.05849200114607811 0  0.02761599980294704 0.04140099883079529 0  0.02802800014615059 0.04031800106167793 0  0.02851100079715252 0.04096100106835365 0  0.02979899942874908 0.04518299922347069 0  0.03064499981701374 0.04440600052475929 0  0.03099000081419945 0.04508300125598907 0  0.02964499965310097 0.04856900125741959 0  0.02875700034201145 0.04877400025725365 0  0.02923700027167797 0.04779399931430817 0  0.02879999950528145 0.04705800116062164 0  0.02975600026547909 0.04681099951267242 0  0.02830599993467331 0.04802599921822548 0  0.02783500030636787 0.04899400100111961 0  0.02782800048589706 0.04732000082731247 0  0.02728799916803837 0.04664700105786324 0  0.02684799954295158 0.04757000133395195 0  0.02629099972546101 0.04689000174403191 0  0.03858400136232376 0.08550199866294861 0  0.03758899867534637 0.08560500293970108 0  0.03826399892568588 0.08494599908590317 0  0.03729400038719177 0.08502399921417236 0  0.006682000122964382 0.02362300083041191 0  0.007373000029474497 0.02406699955463409 0  0.00670900009572506 0.02470799908041954 0  0.007459000218659639 0.02504199929535389 0  0.02586100064218044 0.04781299829483032 0  0.02204800024628639 0.0503619983792305 0  0.02162499912083149 0.05129199847579002 0  0.02105199918150902 0.05058800056576729 0  0.02261199988424778 0.05106600001454353 0  0.02830800041556358 0.04973800107836723 0  0.01691599935293198 0.03426900133490562 0  0.01608599908649921 0.0341930016875267 0  0.01645400002598763 0.03326800093054771 0  0.01192799955606461 0.03989199921488762 0  0.01106300018727779 0.03993700072169304 0  0.01147199980914593 0.03901699930429459 0  0.01060600019991398 0.03906200081110001 0  0.01019699964672327 0.03998199850320816 0  0.0101500004529953 0.03818299993872643 0  0.01101499982178211 0.03814199939370155 0  0.01151899993419647 0.04081299901008606 0  -0.02686900086700916 0.06552600115537643 0  -0.02581300027668476 0.06609299778938293 0  -0.02680400013923645 0.06629099696874619 0  -0.02510800026357174 0.06557600200176239 0  -0.0247770007699728 0.06643299758434296 0  -0.02377299964427948 0.06676699966192245 0  -0.02428499981760979 0.06736499816179276 0  -0.02316500060260296 0.06620100140571594 0  -0.02278799936175346 0.0670820027589798 0  -0.02333799935877323 0.067671999335289 0  -0.02697799913585186 0.06383100152015686 0  -0.01866400055587292 0.0790880024433136 0  -0.01961099915206432 0.07882100343704224 0  -0.0190420001745224 0.08657799661159515 0  -0.01989500038325787 0.08640000224113464 0  -0.01926299929618835 0.08587700128555298 0  -0.02011300064623356 0.08570300042629242 0  -0.01948899962007999 0.08516799658536911 0  -0.01857499964535236 0.08874399960041046 0  -0.01777599938213825 0.08891899883747101 0  -0.01768499985337257 0.0895719975233078 0  -0.01408100035041571 0.08242999762296677 0  -0.01123899966478348 0.07759299874305725 0  -0.01028500031679869 0.07787200063467026 0  -0.01083000004291534 0.07843899726867676 0  -0.01046899985522032 0.07925199717283249 0  -0.00990500021725893 0.07869800180196762 0  -0.01505099982023239 0.0749410018324852 0  -0.01551899965852499 0.074024997651577 0  -0.01455199997872114 0.07432100176811218 0  -0.01358500029891729 0.07461799681186676 0  -0.01404200028628111 0.07370399683713913 0  -0.01802299916744232 0.07708399742841721 0  -0.01751700043678284 0.07648199796676636 0  -0.0184870008379221 0.0761910006403923 0  -0.01945799961686134 0.07590100169181824 0  -0.02391600050032139 0.06826099753379822 0  -0.02453799918293953 0.07039699703454971 0  -0.02415099926292896 0.07128199934959412 0  -0.02220400050282478 0.02360500022768974 0  -0.02246000058948994 0.02411999925971031 0  -0.02263199910521507 0.02461599931120872 0  -0.02281799912452698 0.02515099942684174 0  -0.02198299951851368 0.02533400058746338 0  -0.01938600093126297 0.02363600023090839 0  -0.01853100024163723 0.02377600036561489 0  -0.0202459990978241 0.02346700057387352 0  -0.02168199978768826 0.02255699969828129 0  -0.01747800037264824 0.01821300014853477 0  -0.01710700057446957 0.01897899992763996 0  -0.01817999966442585 0.01858000084757805 0  -0.01675700023770332 0.01783600077033043 0  -0.0181099995970726 0.02295299991965294 0  -0.01642
[...]
<PointData  Scalars="pressure"> 
<DataArray  type="Float64"  Name="pressure"  format="ascii">1.7589380259809238e-02  1.7577412930399813e-02  1.7622462466224072e-02  1.7621951063040507e-02  1.7633396618688298e-02  1.7583882617412179e-02  1.7572865275585818e-02  1.7588153258887775e-02  1.7565090217986603e-02  1.7596562422878846e-02  1.8349674555026313e-02  1.8286401605933335e-02  1.8233461838868883e-02  1.8167393412033668e-02  1.4283210913343072e-02  1.4199173943700325e-02  1.4611153180479368e-02  1.4903039243945853e-02  1.5459429548585271e-02  1.5397356576402241e-02  1.5752352132999147e-02  9.3799441058541391e-03  9.7635909207333983e-03  9.6534676611885716e-03  1.2087558068450625e-02  1.1879256729860357e-02  1.1926216515995708e-02  1.2039041154734448e-02  1.7549759459083922e-02  1.7542691462616333e-02  1.7517710118511824e-02  1.7485638183156724e-02  1.7530724078230291e-02  1.7550326918317101e-02  1.7569824059567259e-02  1.7596792630670849e-02  1.7582532195937872e-02  1.7565386563643905e-02  1.7637600773405350e-02  1.7653498417782090e-02  1.7633750694043951e-02  1.7573984408702687e-02  1.7571585153142402e-02  1.7681946062703752e-02  1.7662760113887649e-02  1.7703943070569529e-02  1.7647294017119126e-02  1.7618058357167954e-02  1.7636162825197605e-02  2.8517337898529210e-02  2.6638885790135208e-02  2.8907389456562977e-02  3.5186242139115427e-02  3.5900808264503078e-02  3.6554051492351844e-02  2.3113452274068007e-02  2.2474989813268776e-02  2.4720005770733904e-02  2.1655238197499722e-02  2.0898594719666014e-02  5.6203545791405837e-03  5.4145118502361700e-03  5.4399950071944772e-03  5.2825462501256380e-03  9.3858808437826437e-03  9.7430796908614913e-03  8.6776700289792411e-03  9.2357806647929176e-03  7.1332687443341966e-03  6.6151741120026794e-03  7.0899553933005746e-03  6.9595262863036238e-03  6.6473753717745457e-03  6.6717678425460315e-03  7.2794909858212679e-03  7.2544855468935597e-03  7.5898940399906668e-03  7.5462020406998065e-03  7.4933819214625802e-03  7.8273922530670628e-03  7.6035649349059306e-03  7.9039700148660595e-03  7.9252862644828351e-03  3.2093305569312024e-03  3.2330001130393381e-03  3.7819798256170517e-03  1.3993938845971964e-03  2.1308558170170452e-03  2.0956696025140852e-03  1.8360517331388070e-02  1.8444186774568910e-02  1.8256326397141295e-02  1.8169968913265007e-02  1.7836935167214837e-02  1.7817045009600310e-02  1.7781956824173710e-02  1.7888442363189545e-02  1.7886146003032621e-02  1.7947682474396473e-02  1.7923323690911829e-02  1.7881865134628638e-02  1.7964104119582252e-02  1.8009892428040720e-02  1.8068789782715554e-02  1.7920995084142920e-02  1.7843565035608334e-02  1.7751139932729552e-02  1.7726749869937306e-02  1.7778625380874678e-02  1.8233681122927458e-02  1.8356497427567835e-02  1.8231255771860543e-02  1.8362321945184324e-02  1.9178421453489823e-02  1.9154498153013268e-02  1.9011479094427082e-02  1.8353454705012318e-02  1.8658747386893597e-02  1.8530386571492790e-02  1.8586428206525972e-02  1.8543775595077111e-02  1.8677664598774346e-02  3.1708384532031286e-02  3.1968365685043069e-02  3.1882620650956359e-02  3.2177231666237593e-02  1.5631075060673533e-02  1.6729903218962401e-02  1.5846027551473664e-02  3.1376943246567479e-02  3.1272270796939595e-02  3.1612003053374589e-02  3.2925733180664704e-02  3.3021450690926261e-02  3.3228986603021295e-02  3.3274869539066020e-02  3.2969770506352303e-02  3.3127804122112983e-02  3.2944199986272842e-02  3.3187586426818814e-02  3.2808411062110382e-02  3.2549680956966795e-02  3.2610363102845756e-02  3.2357958328490297e-02  3.2149854627951474e-02  3.1882441597415163e-02  3.3551063827489555e-02  3.3343795720550802e-02  3.2761471768869080e-02  3.2488261008685883e-02  2.0906950763571828e-02  2.1068296275694249e-02  2.1059229166981264e-02  2.1287211268612140e-02  3.1575176898393988e-02  2.7621827344591857e-02  2.6672015355540927e-02  2.6504369906545668e-02  2.7820016297963119e-02  3.2684756973683123e-02  2.5087707109397166e-02  2.4806969374943741e-02  2.4741925205640388e-02  2.3781353954632021e-02  2.3429964415919689e-02  2.3704587527458226e-02  2.3373265147342032e-02  2.3075588015491835e-02  2.3277925217376771e-02  2.3600868795674666e-02  2.3455053659970929e-02  1.5621828121414166e-02  1.5198431795643801e-02  1.5221848005662435e-02  1.4786241126377452e-02  1.4647442828011554e-02  1.4450088250533556e-02  1.4439094007298519e-02  1.4440844448461457e-02  1.4257535381285186e-02  1.4245487802311744e-02  1.5642821474853262e-02  1.1766011295410012e-02  1.1952192373132678e-02  9.9586023551947074e-03  1.0132468109087356e-02  1.0254852651209730e-02  1.0419308265956218e-02  1.0544018277928394e-02  8.9045938675475847e-03  8.7207815631907687e-03  8.4244250659836241e-03  1.0040533977903405e-02  8.9649087308719642e-03  8.3305230113107712e-03  8.6974493288220836e-03  8.4886907883654945e-03  8.0961190920519691e-03  1.1029389711638252e-02  1.1280978747342688e-02  1.0857427129460966e-02  1.0364798788659330e-02  1.0650785982151578e-02  1.1813596767342782e-02  1.1733758239020269e-02  1.1987871286574490e-02  1.2224941192583709e-02  1.4234066533009944e-02  1.3890927365681670e-02  1.3708274390223259e-02  1.7623143572960406e-02  1.7616244475262395e-02  1.7598075542182200e-02  1.7577722887596486e-02  1.7498401007668786e-02  1.7582270192585774e-02  1.7604918658486370e-02  1.7556674973127389e-02  1.7649761155195110e-02  1.7708364551830221e-02  1.7662030598136293e-02  1.7679508102882428e-02  1.7708531174699182e-02  1.7611217668755407e-02  1.7668248346325376e-02  1.7694644050941205e-02  1.7660600016507016e-02  1.8214944585538836e-02  1.8343119692577001e-02  1.8205096954075854e-02  1.8017731459444970e-02  1.8149189455907173e-02  1.8233827396135591e-02  1.8106696300546773e-02  1.8283528739559147e-02  1.8200331690513948e-02  1.8332989853712782e-02  1.8445966887168600e-02  1.8294012083923061e-02  3.2905782832650277e-02  3.2720937798007395e-02  3.3917818653581115e-02  3.0855115350578773e-02  3.1601058569909982e-02  3.1313625815262078e-02  2.7043588167023212e-02  2.6693892258465062e-02  2.6528408121375042e-02  2.7646253346918035e-02  3.7247535693509144e-02  3.7418476259192923e-02  3.6095458824975481e-02  3.5811023462975357e-02  3.7075831774233826e-02  3.6885406451854917e-02  3.2066931830384567e-02  3.1704169315772489e-02  3.1255890756099927e-02  3.0981892466208073e-02  3.4416761669028587e-02  3.5485937573975071e-02  3.4866126481877563e-02  3.4730259375906181e-02  3.3820827945493667e-02  3.3455929071394344e-02  3.4257394797630791e-02  1.8923640783891742e-02  1.7812988653203708e-02  1.7097513761562978e-02  1.8911584487367288e-02  2.0113181064453953e-02  1.8635737450710399e-02  2.0234319215914440e-02  6.0965320398795875e-03  6.1211675841158462e-03  6.3784191663124011e-03  6.3467061561200445e-03  5.6000956071092026e-03  5.4324285129535195e-03  5.3586600234964109e-03  5.5871725200179502e-03  5.2931064833058317e-03  8.9912679129338889e-03  7.4834734301177340e-03  7.9218824126790141e-03  7.9996195656721163e-03  7.2374476710497966e-03  7.3845679657078868e-03  6.2743855616106091e-03  6.4861733510506933e-03  6.5547305199389790e-03  6.3240463900259003e-03  6.5208307953745007e-03  6.7303128152084342e-03  6.3217985944991166e-03  7.7671699656988620e-03  7.8335010102908165e-03  8.1476549007621288e-03  8.2288864216260686e-03  6.9269702989420111e-03  6.3965841320354974e-03  6.1473782693092470e-03  6.8525243329214426e-03  7.1720840063969581e-03  6.9192040822442756e-03  6.9643191135946546e-03  6.6674395143319423e-03  6.9772366181799356e-03  7.2893532533063118e-03  6.9813238859206608e-03  7.6034509820690419e-03  6.9789011863770171e-03  6.6948908212313418e-03  7.2668895542881209e-03  7.0222629825209548e-03  7.7623702849425602e-03  7.8751888785134894e-03  7.2852976959885581e-03  5.7224351843202931e-03  5.6550349916648993e-03  6.0328515819140782e-03  5.9490476304348457e-03  4.8661237166250960e-03  5.0577524598418057e-03  5.0282673374619433e-03  4.7784645948602301e-03  3.9090715325084992e-03  4.4954683645583998e-03  4.9205366080164147e-03  2.9540689007656121e-03  3.5720930003277744e-03  2.0301454771120796e-03  2.1433334836785875e-03  1.4632012409721874e-03  2.6756670427372127e-03  2.5665693632585668e-03  1.4722067860133950e-02  1.4422573684712113e-02  1.5217648649904315e-02  1.4048219916096876e-02  1.4362977373574641e-02  9.5853331014799370e-03  8.5728885819076617e-03  8.8384454954025318e-03  7.4175862843841069e-03  7.1929475072500318e-03  7.7623470886877162e-03  6.3223060156643654e-03  6.6967104761672044e-03  6.4494853913164181e-03  5.1257964734599884e-03  5.6152585229647979e-03  4.6136873869951460e-03  4.1309088427898648e-03  3.7733518111151415e-03  4.3238350616386576e-03  3.0633791841975858e-03  3.1377358763536520e-03  4.0428121464804803e-03  2.2330938187434500e-03  4.0010532724082289e-03  1.0449465942442147e-02  1.0755265386560547e-02  9.5634049884647035e-03  1.7865547239366515e-02  1.7663283394305389e-02  1.8850650484672236e-02  2.6080418416183828e-02  2.4937504658631513e-02  2.6020422846922062e-02  2.4854062014556425e-02  2.5042667725543439e-02  2.4066297957074125e-02  2.3990436577866828e-02  1.8506801190814628e-02  1.8511792687168314e-02  1.8684635035210270e-02  8.1126388776749242e-03  7.9877318243188715e-03  8.4576507694825338e-03  8.1863989149952507e-03  8.6790518445289191e-03  8.4092054812450467e-03  8.1578883685467611e-03  8.6456513771192879e-03  6.2625463851383491e-03  8.1174957946318592e-03  7.0838594051852617e-03  6.7675432649867140e-03  2.5376875137290221e-02  2.4742620831127590e-02  2.5486278388387126e-02  2.6027260558380678e-02  2.5227230633500276e-02  2.5813022634184134e-02  2.6526947313662206e-02  2.7323573705120736e-02  2.7058188949396003e-02  2.7545113440227476e-02  2.7568236824668718e-02  2.8602513013609613e-02  2.6720612414890370e-02  5.3120782155745214e-03  4.5811862028046907e-03  5.1829173286567568e-03  6.9698332110784030e-03  6.6322616296163837e-03  6.6646347016436833e-03  2.9006465249379262e-03  2.2517990983141091e-03  2.5736422403184883e-03  1.9333302514374963e-03  3.1087782124308398e-03  3.2986452920337750e-03  1.7911156956594045e-03  2.1703088385984781e-03  2.6865879561177308e-03  3.8401398509930809e-03  5.2487872306743177e-03  5.8660068118969004e-03  5.1287334110382797e-03  4.5124641392705750e-03  4.4371099389106730e-03  2.0552840872748723e-03  2.9242482568623135e-03  1.3399993770613350e-03  1.2840506129000590e-03  7.5085998675942026e-04  2.9641413167812436e-03  5.0299686907567982e-03  3.8958125326087716e-03  5.0129262464654566e-03  1.7730077930057257e-02  1.7729555897506001e-02  1.7744732640930225e-02  1.7726753511368917e-02  1.7847946194983963e-02  1.7927278267936796e-02  1.7966825542133621e-02  1.8069721056006641e-02  1.8055910846842389e-02  1.8031206252598159e-02  1.8088290547453832e-02  1.8140253636128052e-02  1.8108527403911300e-02  1.8109023495325595e-02  1.8025954766590069e-02  1.8005678414253261e-02  1.8363489818037818e-02  1.8388580757321714e-02  1.8521161716450664e-02  1.8547974827445836e-02  1.8680996514469014e-02  1.8707990023613202e-02  1.9335737030538792e-02  1.9228766423707619e-02  1.9192016122499787e-02  1.9055441378918864e-02  1.9149974150852952e-02  1.9333285599611373e-02  1.8405502262178297e-02  1.8480728937433945e-02  1.5484651868652218e-02  1.5972411728876684e-02  1.4991632596999462e-02  1.5053529519874088e-02  1.5557116573339119e-02  1.7447475802512526e-02  1.7940670589002873e-02  1.8077857424725421e-02  1.6486041007178348e-02  1.6119751221392458e-02  1.6433136673741900e-02  3.1072490193606028e-02  3.0385833716377923e-02  3.0502121895298141e-02  2.6748896623806320e-02  3.1568150164882548e-02  3.1221968810595243e-02  3.1832333990501754e-02  3.1020689558902203e-02  3.0021047790387122e-02  3.0003313270770052e-02  3.0634874105246877e-02  3.1301987145204463e-02  3.3604803994405484e-02  3.3986712151328355e-02  3.3717382445675917e-02  3.3847225755765001e-02  3.3951195853418090e-02  3.3466303791997366e-02  3.3536593805319384e-02  3.1167935178443504e-02  3.1838592189405476e-02  3.1621358169051920e-02  3.2401643506356090e-02  3.1962029451946657e-02  3.2260177604295240e-02  3.2330536409835436e-02  3.2823574791435821e-02  3.2815973627108634e-02  3.3059692596728689e-02  3.2890055696921501e-02  3.2575045105123775e-02  3.2723689953053421e-02  3.0926654624221898e-02  3.1602447911751479e-02  3.0854889951104681e-02  3.0036823765792704e-02  3.0800834809647369e-02  3.0011567518323980e-02  3.2952426627235430e-02  3.3070300093640953e-02  3.3114109631179681e-02  3.2296087279718735e-02  3.3090338897069839e-02  1.5167804612253850e-02  1.4653375282201607e-02  1.4276810739721148e-02  2.0567614503332166e-02  2.0404120577596649e-02  2.1584567208121297e-02  1.9035438706839318e-02  8.0066707958503132e-03  7.4012722506545739e-03  7.5617262488940698e-03  7.9070387907771711e-03  8.4872419864485960e-03  8.5295061807471109e-03  1.3011547151850416e-02  1.3850793065582123e-02  1.3282451766220296e-02  1.2218476414818831e-02  1.2759990750021558e-02  1.1003273613948244e-02  1.1236180114563871e-02  1.0571685103562160e-02  1.2468547397481222e-02  1.1712422894469793e-02  1.1514308485037653e-02  1.1071451771350767e-02  1.0794449445667129e-02  1.1861196738456981e-02  1.2321950904060203e-02  1.1993657330130560e-02  9.1118786220258617e-03  9.6545159174659667e-03  9.8220823564920193e-03  1.9090166023032852e-02  1.9202348013707876e-02  1.8301301126611963e-02  1.4170478999481097e-02  1.5059779048818127e-02  3.1757820724829182e-02  3.3511325150009430e-02  3.3519177279410964e-02  3.3684925083782631e-02  3.3401477611964256e-02  3.3383363739448967e-02  3.3555525879980098e-02  3.3338508517201444e-02  3.2719737681341128e-02  3.2978607940087779e-02  3.3366100248896462e-02  3.2045436701633886e-02  3.2391364750342905e-02  3.2095941281324702e-02  3.2437143884091732e-02  3.1282508776561330e-02  3.0886415108822202e-02  2.7657639611279188e-02  2.6908851294317589e-02  2.6706455310714250e-02  3.1684512443663645e-02  3.1951061330202771e-02  3.2373257526662008e-02  3.2719403055728014e-02  3.2027721122799474e-02  2.1425355743839639e-02  2.1323070305648898e-02  2.1426675617299863e-02  2.1875501818535176e-02  2.1828403845105995e-02  2.1739219666528510e-02  2.1660989015975234e-02  2.0454004659927430e-02  2.0444273961294591e-02  2.0309842282553274e-02  2.0309771302549753e-02  2.0447534095462641e-02  2.0591490374592319e-02  2.0007809975633006e-02  1.9988324886139164e-02  1.9841308417985960e-02  2.0155601762264750e-02  1.9813232934587317e-02  1.9955421219558032e-02  1.9665076851232199e-02  1.9692800502267148e-02  2.6859324318416717e-02  2.7007624287904111e-02  2.5832178725501587e-02  2.9857952088188498e-02  2.8879513642748156e-02  2.9662452104840850e-02  2.9419202803836916e-02  3.0340235110392893e-02  2.8686523055759333e-02  3.2278512011357618e-02  3.1717415798742876e-02  3.1644178875906960e-02  2.3735500609085032e-02  2.2799720272344171e-02  2.3568939710658512e-02  2.8173444389955230e-02  2.8228635941200227e-02  2.9110061347303387e-02  2.4588354476286919e-02  2.4374356706859432e-02  2.4658227675821182e-02  2.4947623556283213e-02  2.4805089448359501e-02  2.5196493606391167e-02  2.4598883812347993e-02  2.4554339445621305e-02  2.4860245934935351e-02  2.8767415231788544e-02  2.9183377251456748e-02  2.8832417348421534e-02  2.8422944720839716e-02  2.8380809507560629e-02  2.8089706510523248e-02  2.7702807427791864e-02  2.7647450290117004e-02  2.7141537888350820e-02  2.6815708069511186e-02  2.6607309813375297e-02  2.6333762528024645e-02  2.6359935213370184e-02  2.6817066585136551e-02  2.6851737324115246e-02  2.6418622830825574e-02  2.2255493576709234e-02  2.2467372747659115e-02  2.2133292053558483e-02  2.2324999204712644e-02  2.3868384951035427e-02  2.4465460737305378e-02  2.3865953698515331e-02  2.3308186927610483e-02  2.3873638125235581e-02  2.4318753993438323e-02  2.4033830376535135e-02  2.4146439125159649e-02  2.4364998037178870e-02  2.4409193763148165e-02  2.2884858305572839e-02  2.3411638773071418e-02  2.3364877004369740e-02  2.3871467868827694e-02  2.3869271438909573e-02  2.3840925524901555e-02  2.4228549380598097e-02  2.3451480581432756e-02  2.3075210053785440e-02  1.3538928600800550e-02  1.3477504294511833e-02  1.3234739691321270e-02  4.9682697852524785e-03  5.3865765311867618e-03  4.8223483473598186e-03  1.4038854181277895e-02  1.4014337310653692e-02  1.4543766985147658e-02  1.4783511021464872e-02  1.0957159406644618e-02  1.0983336018125199e-02  1.0732263993264386e-02  1.0919010642761282e-02  1.1165621049057693e-02  1.0775335862419980e-02  1.1178175244756592e-02  1.2192961428776874e-02  1.1991415843060640e-02  1.2131722852053151e-02  1.1721377162612102e-02  1.1403679231374898e-02  1.1196106711831862e-02  1.1357272446962084e-02  1.1599398617299493e-02  1.1789979469380270e-02  9.7006438004380614e-03  1.0317257814444227e-02  1.0115451305726348e-02  9.5269885010100600e-03  1.0522134016382696e-02  9.8305844903578618e-03  1.0816483209369725e-02  1.1080062608349792e-02  1.0614821560281897e-02  1.0872903715958157e-02  1.0321058952560608e-02  1.0600977474640023e-02  9.4791687101065496e-03  9.2888449286446968e-03  6.8474351761563523e-03  7.3215982708389575e-03  7.0371135045052338e-03  6.4965013501849626e-03  8.8546614489666796e-03  8.3016271964008737e-03  8.6624616163130663e-03  5.9660570477312810e-03  6.5967463955864218e-03  6.0774161013222965e-03  7.0837221044931092e-03  6.4581051198183449e-03  8.1021860476610426e-03  7.8036362880026383e-03  7.5534124550438869e-03  8.0522677510991500e-03  9.2361064799894241e-03  7.2433093942105148e-03  7.6628291535434691e-03  1.1538972299788702e-02  1.1318007992008189e-02  1.1121408677063828e-02  1.1548783542486788e-02  1.1395224149328618e-02  5.2385290416657113e-03  5.7997235948496380e-03  1.1815643010689172e-02  1.1925413153975051e-02  1.1670659901598230e-02  1.2854929913139131e-02  1.2832925248327555e-02  1.2575780935620052e-02  1.3825950248110272e-02  1.3593620619609826e-02  1.3594909691123088e-02  1.1554780745304177e-02  1.2186196787884331e-02  1.1927223997423408e-02  1.2141621288072946e-02  1.4599407155650133e-02  1.4794548708375545e-02  1.4139839217196389e-02  1.4080893260243858e-02  1.3561298061130555e-02  1.7464596861164562e-02  1.7560671114389317e-02  1.7443758864351688e-02  1.7405578593386643e-02  1.7558634019810296e-02  1.7606965745316450e-02  1.7649583227584448e-02  1.7648817524501190e-02  1.7677855212343808e-02  1.7631926824240786e-02  1.7622008363652564e-02  1.7706373241044317e-02  1.7192910550324236e-02  1.7252590555086624e-02  1.7176856548536262e-02  1.7261865551271422e-02  1.7275570561605474e-02  1.7294943072190639e-02  1.7337458063670531e-02  1.7645521237688561e-02  1.7719532669563384e-02  1.7674199317290168e-02  1.7591569319668234e-02  1.7610760845859628e-02  1.7530516101712114e-02  1.7581438429256795e-02  1.7697772533651804e-02  1.7546391918590584e-02  1.7480474053819792e-02  1.7465945481909356e-02  1.7095007921525442e-02  1.7120479682067081e-02  1.7146368048957406e-02  1.7553605878975580e-02  1.7597735557168856e-02  1.7691376463878222e-02  1.6338411955045585e-02  1.6219382798770221e-02  1.6103724095791493e-02  1.6215429036335917e-02  1.8067633007703934e-02  1.8182418614512405e-02  1.7883066492838356e-02  1.7945461553640692e-02  1.7832884556950496e-02  1.7826164571001481e-02  1.7913994591910377e-02  1.7573911232723005e-02  1.7506315873724650e-02  1.7546483234057393e-02  1.7605868266351646e-02  1.7470349214505167e-02  1.7904642576179033e-02  1.7784852825309283e-02  1.7675517353692216e-02  1.7732572308169992e-02  1.7730041500351904e-02  1.7727850227275375e-02  1.7771543162470864e-02  1.7822769898013600e-02  1.7820490413300506e-02  1.8070347480933956e-02  1.8044402217378526e-02  1.7970585998814972e-02  1.8021088958796741e-02  1.7943959407089045e-02  1.8114053370351060e-02  1.7955018080103073e-02  1.7995539832294787e-02  1.8237745990810964e-02  1.8263156539766533e-02  1.8140106808623366e-02  1.8412098017809794e-02  1.8129399215026362e-02  1.8185927042532319e-02  1.8080224173050129e-02  1.8379107974592197e-02  1.8432365298241462e-02  1.8538698107434172e-02  3.1763277814060839e-02  3.165748330