<?xml version="1.0"?>
<VTKFile type="UnstructuredGrid"  version="0.1"  >
<UnstructuredGrid>
<Piece  NumberOfPoints="6340" NumberOfCells="12376">
<Points>
<DataArray  type="Float64"  NumberOfComponents="3"  format="ascii">-0.01954399980604649 0.02080300077795982 0  -0.02033600024878979 0.02152499929070473 0  -0.02054000087082386 0.02051999978721142 0  -0.0211970005184412 0.02136700041592121 0  -0.01975799910724163 0.01987599954009056 0  -0.01940800063312054 0.02168799936771393 0  -0.01999799907207489 0.02248699963092804 0  -0.01951700076460838 0.02328599989414215 0  -0.02056000009179115 0.02332600019872189 0  -0.01892999932169914 0.02240299992263317 0  -0.007544000167399645 0.01809800043702126 0  -0.008271000348031521 0.01892299950122833 0  -0.008597999811172485 0.01798000000417233 0  -0.009333999827504158 0.018843999132514 0  -0.02558399923145771 0.08014799654483795 0  -0.02650200016796589 0.08075600117444992 0  -0.02668800018727779 0.07995100319385529 0  -0.02622699923813343 0.07328899949789047 0  -0.0268350001424551 0.07415299862623215 0  -0.02704700082540512 0.07324100285768509 0  -0.02776999957859516 0.07382000237703323 0  -0.01156799960881472 0.09042699635028839 0  -0.01248100027441978 0.09042400121688843 0  -0.01199399959295988 0.08958599716424942 0  -0.01944299973547459 0.08544199913740158 0  -0.01844399981200695 0.08543899655342102 0  -0.01888900063931942 0.08627700060606003 0  -0.01899800077080727 0.08460000157356262 0  -0.02252599969506264 0.02511199936270714 0  -0.02155799977481365 0.02507499977946281 0  -0.02201800048351288 0.02597500011324883 0  -0.02243299968540668 0.0268779993057251 0  -0.02300499938428402 0.02602799981832504 0  -0.02104200050234795 0.02594099938869476 0  -0.02056000009179115 0.02503900043666363 0  -0.0195470005273819 0.02500000037252903 0  -0.02004400081932545 0.02589800022542477 0  -0.0220589991658926 0.02418899908661842 0  -0.02311999909579754 0.02429600059986115 0  -0.02240999974310398 0.02292999997735023 0  -0.02182099968194962 0.02217100001871586 0  -0.02156299911439419 0.02326899953186512 0  -0.02094800025224686 0.02240400016307831 0  -0.01599700003862381 0.02198000065982342 0  -0.01651700027287006 0.02110300026834011 0  -0.01544800028204918 0.02108000032603741 0  -0.01699200086295605 0.02210099995136261 0  -0.01800600066781044 0.02216099947690964 0  -0.01750800013542175 0.02303300052881241 0  0.0417109988629818 0.08501099795103073 0  0.04157999902963638 0.08413299918174744 0  0.04284400120377541 0.08449400216341019 0  0.04192600026726723 0.09647999703884125 0  0.04265899956226349 0.09690599888563156 0  0.04167300090193748 0.09738499671220779 0  0.02580399997532368 0.1050970032811165 0  0.02592799998819828 0.104143999516964 0  0.02677500061690807 0.1046250015497208 0  0.02491199970245361 0.1055300012230873 0  0.0250220000743866 0.104373000562191 0  -0.00545400008559227 0.09882300347089767 0  -0.004550999961793423 0.09886399656534195 0  -0.005084000062197447 0.09969999641180038 0  -0.00417400011792779 0.09974599629640579 0  -0.01634600013494492 0.1004009991884232 0  -0.01673400029540062 0.09968099743127823 0  -0.01570400036871433 0.09977100044488907 0  -0.01725899986922741 0.1006200015544891 0  -0.01265600044280291 0.1063769981265068 0  -0.01285099983215332 0.1072850003838539 0  -0.01342399977147579 0.1065689995884895 0  -0.00926200021058321 0.09800499677658081 0  -0.008402000181376934 0.0979899987578392 0  -0.008932000026106834 0.09883499890565872 0  -0.01011900044977665 0.09801699966192245 0  -0.009588999673724174 0.09717400372028351 0  -0.01044599991291761 0.09718599915504456 0  -0.01256399974226952 0.1005109995603561 0  -0.01305599976330996 0.1013190001249313 0  -0.01345499977469444 0.1005060002207756 0  -0.01151099987328053 0.09886500239372253 0  -0.01238499954342842 0.09887400269508362 0  -0.01184399984776974 0.0980369970202446 0  0.01197700016200542 0.09525299817323685 0  0.01293299999088049 0.09526599943637848 0  0.01241100020706654 0.09612199664115906 0  0.007569000124931335 0.07877200096845627 0  0.008200000040233135 0.07793200016021729 0  0.0085249999538064 0.07878399640321732 0  -0.007220000028610229 0.01723000034689903 0  -0.006357000209391117 0.01748000085353851 0  -0.008131000213325024 0.0170889999717474 0  -0.009081999771296978 0.01694200001657009 0  -0.01291999965906143 0.01682000048458576 0  -0.01320500019937754 0.01790899969637394 0  -0.01382699981331825 0.01701699942350388 0  -0.01233999989926815 0.01772500015795231 0  -0.0123870000243187 0.01875099912285805 0  -0.01148100011050701 0.01791100017726421 0  -0.01195100042968988 0.02168500050902367 0  -0.01244200021028519 0.02072999998927116 0  -0.01145699992775917 0.02077200077474117 0  -0.01095100026577711 0.01992099918425083 0  -0.01038699969649315 0.0207700002938509 0  -0.01194600015878677 0.01977100037038326 0  -0.01294699963182211 0.0217059999704361 0  -0.01443399954587221 0.02093599922955036 0  -0.01495900005102158 0.02191399969160557 0  -0.01394800003618002 0.02179500088095665 0  -0.008812000043690205 0.01979799941182137 0  -0.0109479995444417 0.03070200048387051 0  -0.01146399974822998 0.02983300015330315 0  -0.01042100042104721 0.02977400086820126 0  -0.005171999800950289 0.02952400036156178 0  -0.005708000157028437 0.03043900057673454 0  -0.00622300012037158 0.02956599928438663 0  -0.007796999998390675 0.01988800056278706 0  -0.005154000129550695 0.01942599937319756 0  -0.006190999876707792 0.01922599971294403 0  -0.00535399978980422 0.01857900060713291 0  -0.005423000082373619 0.01775100082159042 0  -0.004389999900013208 0.01805000007152557 0  0.04394099861383438 0.09251599758863449 0  0.04501499980688095 0.0921349972486496 0  0.04433700069785118 0.09318400174379349 0  0.04326000064611435 0.09324900060892105 0  0.0175199992954731 0.05996099859476089 0  0.01860000006854534 0.05996900051832199 0  0.018070999532938 0.06082199886441231 0  0.03226000070571899 0.04622700065374374 0  0.03279700130224228 0.04521600157022476 0  0.03324500098824501 0.04599799960851669 0  0.034170001745224 0.05066400021314621 0  0.03513199836015701 0.05007399991154671 0  0.0354200005531311 0.05084900185465813 0  0.03366300091147423 0.05407499894499779 0  0.03270899876952171 0.05407899990677834 0  0.03331099823117256 0.05319299921393394 0  0.03293300047516823 0.05233699828386307 0  0.03395399823784828 0.05231599882245064 0  0.03231799975037575 0.05320699885487556 0  0.03172599896788597 0.05408100038766861 0  0.03189300000667572 0.05237000063061714 0  0.03139799833297729 0.05154500156641006 0  0.03084399923682213 0.05238600075244904 0  0.03033100068569183 0.05154300108551979 0  0.0413069985806942 0.09479200094938278 0  0.04031600058078766 0.09478099644184113 0  0.04084999859333038 0.09393999725580215 0  0.039877999573946 0.09389600157737732 0  0.009510999545454979 0.02552399970591068 0  0.01031900011003017 0.02604500018060207 0  0.009494000114500523 0.02658000029623508 0  0.01037800032645464 0.0270019993185997 0  0.02978700026869774 0.05238600075244904 0  0.02553500048816204 0.05404900014400482 0  0.02500100061297417 0.05490000173449516 0  0.02446500025689602 0.05403200164437294 0  0.02606000006198883 0.05491499975323677 0  0.03214500099420547 0.05494999885559082 0  0.02098600007593632 0.03699399903416634 0  0.02003500051796436 0.03681699931621552 0  0.02050499990582466 0.03596299886703491 0  0.01495600026100874 0.04187000170350075 0  0.01394599955528975 0.04182299971580505 0  0.01446700002998114 0.04097500070929527 0  0.01345600001513958 0.04092799872159958 0  0.01293499954044819 0.04177499935030937 0  0.01296500023454428 0.04002999886870384 0  0.0139769995585084 0.0400799997150898 0  0.01443600002676249 0.04271899908781052 0  -0.02763799950480461 0.07471399754285812 0  -0.02654200047254562 0.07498700171709061 0  -0.02751700021326542 0.0755309984087944 0  -0.0258760005235672 0.07418700307607651 0  -0.02548299916088581 0.07501800358295441 0  -0.02445700019598007 0.07505299896001816 0  -0.0249249991029501 0.07587800174951553 0  -0.02389200031757355 0.07423199713230133 0  -0.02345100045204163 0.07507400214672089 0  -0.02395699918270111 0.07590200006961823 0  -0.0278680007904768 0.07289499789476395 0  -0.01833399944007397 0.08710599690675735 0  -0.0193329993635416 0.08711100369691849 0  -0.01689800061285496 0.09631899744272232 0  -0.0178069993853569 0.09635599702596664 0  -0.01730000041425228 0.09549999982118607 0  -0.01820600032806396 0.09554199874401093 0  -0.01771100051701069 0.09468100219964981 0  -0.01588100008666515 0.09895099699497223 0  -0.01502799987792969 0.09893999993801117 0  -0.014767000451684 0.09975499659776688 0  -0.01293100044131279 0.08958499878644943 0  -0.01113799959421158 0.08290500193834305 0  -0.01014299970120192 0.08290299773216248 0  -0.01059100031852722 0.08374100178480148 0  -0.01006700005382299 0.08457800000905991 0  -0.009608999826014042 0.0837400034070015 0  -0.01521799992769957 0.08118899911642075 0  -0.01573999971151352 0.08032499998807907 0  -0.0147529998794198 0.08033200353384018 0  -0.01376600004732609 0.08033899962902069 0  -0.01427599973976612 0.07947500050067902 0  -0.01800099946558475 0.08460000157356262 0  -0.01755799911916256 0.08374900370836258 0  -0.01855500042438507 0.08374600112438202 0  -0.01955300010740757 0.08374500274658203 0  -0.02449299953877926 0.07673999667167664 0  -0.02498999983072281 0.07930299639701843 0  -0.0245520006865263 0.08015699684619904 0  -0.0234960000962019 0.02501999959349632 0  -0.02386000007390976 0.02572000026702881 0  -0.0241090003401041 0.02641700021922588 0  -0.02437799982726574 0.02716699987649918 0  -0.02338100038468838 0.02696800045669079 0  -0.02005200088024139 0.02415799908339977 0  -0.01902900077402592 0.02410699985921383 0  -0.02107900008559227 0.02417699992656708 0  -0.02275400049984455 0.02359299920499325 0  -0.0174540001899004 0.01826100051403046 0  -0.01707099936902523 0.01902399957180023 0  -0.01827000081539154 0.0186500009149313 0  -0.01661599986255169 0.01786099933087826 0  -0.01847800053656101 0.02319700084626675 0  -0.01650100015103817 0.
[...]
<PointData  Scalars="pressure"> 
<DataArray  type="Float64"  Name="pressure"  format="ascii">3.3020361092959027e-02  3.2961981846069043e-02  3.2996473321467844e-02  3.2936609153269999e-02  3.3047188304583315e-02  3.2985507078904963e-02  3.2922883196429789e-02  3.2888070925019282e-02  3.2852769248693799e-02  3.2962720059398341e-02  3.3365205120374990e-02  3.3338571538423567e-02  3.3335398550487144e-02  3.3332600536276027e-02  2.8776362194973419e-02  2.8744558822218359e-02  2.8804502883113137e-02  2.9033469047480588e-02  2.8982195070348556e-02  2.8976780283061013e-02  2.9005217931415667e-02  2.0539053164528739e-02  2.1143369777547247e-02  2.1199012610877404e-02  2.7257994249951772e-02  2.6975138033829130e-02  2.6753995408945009e-02  2.7450413646801806e-02  3.2656893817603422e-02  3.2691281400597544e-02  3.2599038634819250e-02  3.2501744009934962e-02  3.2562683012757936e-02  3.2629641690744463e-02  3.2723524380365562e-02  3.2760584405661354e-02  3.2666312774909223e-02  3.2744123186601470e-02  3.2709888268727991e-02  3.2813136871288395e-02  3.2873041356602704e-02  3.2824114358915121e-02  3.2895343041779636e-02  3.3074214667623815e-02  3.3094383243133144e-02  3.3121661308345388e-02  3.3041152779569524e-02  3.3006932136668693e-02  3.2973209887871391e-02  3.1655538600931621e-02  2.9993610376402795e-02  3.2046289606353966e-02  4.2965806937690115e-02  4.3253281310825349e-02  4.3575647350373108e-02  4.3313200241686216e-02  4.2887300393124612e-02  4.3578786045349163e-02  4.2933687811276176e-02  4.2442849941569070e-02  2.2782467167035220e-02  2.3073058563325102e-02  2.3445232890114239e-02  2.3759583292863675e-02  2.2580216923450604e-02  2.2498986410449517e-02  2.2512636303500592e-02  2.2605967948934293e-02  2.3718552936588581e-02  2.3923677921686329e-02  2.3729438581506408e-02  2.1670286200532220e-02  2.1693987487793793e-02  2.2158562607824464e-02  2.1685764332472032e-02  2.1203966700953803e-02  2.1283446277266541e-02  2.2635438947058460e-02  2.2805222254657736e-02  2.2613331866418802e-02  2.2114834303001252e-02  2.2159325351897016e-02  2.1822341484941145e-02  2.5000905071251890e-02  2.5435790507119044e-02  2.5784574891173740e-02  1.7918486533831171e-03  1.2602811121241106e-03  1.0523657967164840e-03  3.3373225774857601e-02  3.3431724110050576e-02  3.3340263530914793e-02  3.3349031993246653e-02  3.3294232724001942e-02  3.3271270442973913e-02  3.3253472026245685e-02  3.3305558201453749e-02  3.3279147797023657e-02  3.3327911396080129e-02  3.3178610587876009e-02  3.3207647532146320e-02  3.3227358161046605e-02  3.3274086416407354e-02  3.3245755128973153e-02  3.3257080775236203e-02  3.3158155804527509e-02  3.3151440359249565e-02  3.3103295754064163e-02  3.3132157778651514e-02  3.3309139206081598e-02  3.2545089427484852e-02  3.2603072450739505e-02  3.2627864029741750e-02  3.2516180025369115e-02  3.2500231457999088e-02  3.2562393970667895e-02  3.3316064033469428e-02  3.3465177462226568e-02  3.3416652094513777e-02  3.3522841686784093e-02  3.3515859520702691e-02  3.3569036503642319e-02  4.0087642416123705e-02  3.9981306338698432e-02  4.0566728613605288e-02  4.0589284634893738e-02  1.8753829318949120e-02  1.9224206499479549e-02  1.8114480562602488e-02  2.8791403575033452e-02  2.9074945743551382e-02  2.8956921218516011e-02  2.7874729727829711e-02  2.8065931140230455e-02  2.7965379602559758e-02  2.7063198655067441e-02  2.7069142853691344e-02  2.7345345610441888e-02  2.7573787467897161e-02  2.7569388315784669e-02  2.7341826304189444e-02  2.7048705154698260e-02  2.7556261843178369e-02  2.7758555965998036e-02  2.7519185857459480e-02  2.7736825832638957e-02  4.1705748475512477e-02  4.1607341983094417e-02  4.0976112559435028e-02  4.0807614126151234e-02  3.2032302669344578e-02  3.1953010316194318e-02  3.1965687300351119e-02  3.1885276660928719e-02  2.7458873932999690e-02  2.6153388230689047e-02  2.5562466964117514e-02  2.5923234307162261e-02  2.5819948489584924e-02  2.6753667301932373e-02  3.0334341089339731e-02  3.0443044827006577e-02  3.0434333356363717e-02  3.0493416747789007e-02  3.0576847413734197e-02  3.0668478169749085e-02  3.0754774936820051e-02  3.0659106744449868e-02  3.0908184096666916e-02  3.0823751971930317e-02  3.0367326729932222e-02  2.8998867213105056e-02  2.8960835751220354e-02  2.8969754941965783e-02  2.9017412536971730e-02  2.9017465240065744e-02  2.9030698277661568e-02  2.9008884227315276e-02  2.9059182873256970e-02  2.9055298237203528e-02  2.9038979499522971e-02  2.9021192658958153e-02  2.6182364962991388e-02  2.6531545264361526e-02  2.2577708278073219e-02  2.2768606669922916e-02  2.2779453078741015e-02  2.3027955102988436e-02  2.3038497452142724e-02  2.2443162296752923e-02  2.2382583514630953e-02  2.2487997976317408e-02  2.1826868733814907e-02  2.3954975641118193e-02  2.3157101602227573e-02  2.3260713705095699e-02  2.2488519143138198e-02  2.2426579855147798e-02  2.7170845660318962e-02  2.7629899963349830e-02  2.7123907731967135e-02  2.6548316866171519e-02  2.6979298058785857e-02  2.7192481231288528e-02  2.7364874955805654e-02  2.7621649417126842e-02  2.7862246298223380e-02  2.8994138195619613e-02  2.8869573598244529e-02  2.8816017670486006e-02  3.2649632309185078e-02  3.2587106117606519e-02  3.2511161673159886e-02  3.2431097755927472e-02  3.2463801017753660e-02  3.2809210789441337e-02  3.2847498099084549e-02  3.2776881079676093e-02  3.2765505658492795e-02  3.3142816528722349e-02  3.3135804171148808e-02  3.3122237614016177e-02  3.3162234222977975e-02  3.2929842203964763e-02  3.3011526674671270e-02  3.2974785244247698e-02  3.2934352962451063e-02  3.2510621663738748e-02  3.2456410798862134e-02  3.2410243898924468e-02  3.3195060716175562e-02  3.3101304633795868e-02  3.3038128472725921e-02  3.3046716408747817e-02  3.3092676491285569e-02  3.3154490439922989e-02  3.2964474446021443e-02  3.2882805956510552e-02  3.2908359168952607e-02  4.1738184248412677e-02  4.1927161128634122e-02  4.2440282449828344e-02  3.8520998765441176e-02  3.9457049307261988e-02  3.9221882827383238e-02  3.2916026829635472e-02  3.2450699963062477e-02  3.1676124214222105e-02  3.0767010044827847e-02  4.4016221658861605e-02  4.4154303593793728e-02  4.3594303652375217e-02  4.3361094652002150e-02  4.3896153750844796e-02  4.3754030149717238e-02  4.0581434172437154e-02  3.9930123240902810e-02  3.9664500083086751e-02  3.8954827716485903e-02  4.2403355472402669e-02  4.3059289096576532e-02  4.2765289101624783e-02  4.2833267368528806e-02  4.2500152771814320e-02  4.2037147127748475e-02  4.2311703315197034e-02  4.2034473705299072e-02  4.1522985526079192e-02  4.1021247236387871e-02  4.1589486521079730e-02  4.2312210991530708e-02  4.1673687695399905e-02  4.2525136846279829e-02  2.2368714802108756e-02  2.2752566641906984e-02  2.2235828507876431e-02  2.1762788091711120e-02  2.2309549240738306e-02  2.5347571673148082e-02  2.4640934585020050e-02  2.5053253776267312e-02  2.4029719490514613e-02  2.2680487497918917e-02  2.3372591201139336e-02  2.3218632895051917e-02  2.3185733443854429e-02  2.3565018100649607e-02  2.3356464591959416e-02  2.3631748749611711e-02  2.3510717929333069e-02  2.3435716647402797e-02  2.3555816038453237e-02  1.8575444370573724e-02  1.8329686051499414e-02  1.8311516263768004e-02  1.9360027554730555e-02  1.9881369624469198e-02  1.9638725957316888e-02  2.1927507717875903e-02  2.1167058367868061e-02  2.2617705871610473e-02  2.3055949502504860e-02  2.3236979074180122e-02  2.3018658322392176e-02  2.3116026492367957e-02  2.2948879783608232e-02  2.3212184475215614e-02  2.2106449228429473e-02  2.2091487165539627e-02  2.2452982217592551e-02  2.1741347878375384e-02  2.2729406791245958e-02  2.2810826969804295e-02  2.2675745974111684e-02  2.3185883446986060e-02  2.2756894873530883e-02  2.2419485893997941e-02  2.2420406769130895e-02  2.6951165121598598e-02  2.6849505334068054e-02  2.7118446817310606e-02  2.6966351061450129e-02  2.5887737516415387e-02  2.6003395374189164e-02  2.6219980780088813e-02  2.6075204032635548e-02  2.5853116277864366e-02  2.6356417164934556e-02  2.6427541839273601e-02  2.5372333917987329e-02  2.5849509025202121e-02  2.5399517540138722e-02  2.5062107778016842e-02  2.4996047840375575e-02  2.5481197194473053e-02  2.5716714671886281e-02  3.8178457949116555e-02  3.8258434604220584e-02  3.9194192038414413e-02  3.7338294212038561e-02  3.7326969816945256e-02  2.9665633549800681e-02  2.8822630794974650e-02  2.9107246193894942e-02  2.8126127622866481e-02  2.7986453216284308e-02  2.8407630425467408e-02  2.7220745122552063e-02  2.7533878754005821e-02  2.7417048476146101e-02  2.6184749839493347e-02  2.7330558848771710e-02  2.6604574332953955e-02  2.5447866116997560e-02  2.5917444641919671e-02  2.6877658137752322e-02  9.5367396959392114e-04  1.4613751227997504e-03  9.1321601573166739e-04  1.6378616461257545e-03  4.7449750225442983e-04  3.0203445540966239e-03  2.7897649421412193e-03  2.1340828382053895e-03  1.9697227572575655e-02  2.0273095044751072e-02  2.0726166470457403e-02  2.3382618956282995e-02  2.2979630752007204e-02  2.3761333373301281e-02  2.3379748022050981e-02  2.6466157543210640e-02  2.5861214863384226e-02  2.6284621611788538e-02  3.2490383984775793e-02  3.2404830379134816e-02  3.2438795779082097e-02  2.0927016887458329e-02  2.1388358782474279e-02  2.1755330252804437e-02  1.9035893587055101e-02  1.9558421483634351e-02  1.8529038408468278e-02  1.7419373085575840e-02  1.8012815253210246e-02  2.6991004670548428e-02  2.5770978176307895e-02  2.6462314270605816e-02  2.4881976870961175e-02  1.9251151291218124e-02  1.9024349472538081e-02  1.9502940902428101e-02  1.9436033138567652e-02  1.9110702525891126e-02  1.9266003837496621e-02  1.9560099550788853e-02  1.9881209985147016e-02  1.9615949899154484e-02  1.9756990351050149e-02  1.9509183824338930e-02  1.9831296912957888e-02  1.9519549293822831e-02  2.6243897175823920e-02  2.5796643197597210e-02  2.6538095316160713e-02  2.7094249632476836e-02  2.6478840843964888e-02  2.6641612526519372e-02  2.3294756964068145e-02  2.2658227980886722e-02  2.1639050747614005e-02  2.0983887465291732e-02  2.5278812164879129e-02  2.4720514091642158e-02  2.2066227414531805e-02  2.3464546774414886e-02  2.4607228716785945e-02  2.6212901477546183e-02  2.7878840369925995e-02  2.8284515726992619e-02  2.7384467864628576e-02  2.7000474428927036e-02  2.6112799703977153e-02  9.8815721275449103e-04  4.5241897757768157e-04  1.6682803494149079e-03  1.7627027976906198e-03  2.5547367072105559e-03  6.0631799769231276e-04  7.0283749599388268e-04  6.2010754923898237e-04  2.1773013786061807e-04  3.3164824158008713e-02  3.3184488742252757e-02  3.3212876478641205e-02  3.3200542117912263e-02  3.3230284291256171e-02  3.3332757196770139e-02  3.3356518215819274e-02  3.3311763914800827e-02  3.3332460790268796e-02  3.3344531403711249e-02  3.3364867311282839e-02  3.3338952060476885e-02  3.2568271014599443e-02  3.2666146239882357e-02  3.2630222879402572e-02  3.2525026811925400e-02  3.2706040207075390e-02  3.2775083924887587e-02  3.2702294008388505e-02  3.2755217772560262e-02  3.2676414485511722e-02  3.2712895155769230e-02  3.2465138974449310e-02  3.2861100893042137e-02  3.2780943393652048e-02  3.2896430685264405e-02  3.2706308827268812e-02  3.2675642795418985e-02  3.3364307486294417e-02  3.3334014986166755e-02  2.9000856884877933e-02  2.9042083398045763e-02  2.9017564541813552e-02  2.9032612144117668e-02  2.8980076730501864e-02  2.9263357070121513e-02  2.9590811364495644e-02  2.9592939575180340e-02  2.9010323109690775e-02  2.8815202203193162e-02  2.9027538796178066e-02  2.1938643427413716e-02  2.1394198810976508e-02  2.1403569331256932e-02  2.9533681267991052e-02  2.2984991427217407e-02  2.3065046948080994e-02  2.3497751844728375e-02  3.9482150092347498e-02  3.7463442278947934e-02  3.7815420926171281e-02  3.8295522297150296e-02  3.8734106604556819e-02  2.6218890345625249e-02  2.6618489944119701e-02  2.6314604589992373e-02  2.6507586401421132e-02  2.6744277151107269e-02  2.6219468409766012e-02  2.6494428552143026e-02  2.3783168325133199e-02  2.4235913400311490e-02  2.3799158125161306e-02  2.4660242553760155e-02  2.4654832198454352e-02  2.4242268719948713e-02  2.6089056851612197e-02  2.6456798269867226e-02  2.6156989254922346e-02  2.5880454053687846e-02  2.5504280506475917e-02  2.5495520622390307e-02  2.5847533458420481e-02  2.5191274647915596e-02  2.5343635576293322e-02  2.4857461606723041e-02  2.4309002525901222e-02  2.4488898634355289e-02  2.3945289253884623e-02  2.4943184455501366e-02  2.5185328303870887e-02  2.4807430028275911e-02  2.4012297980691356e-02  2.4499224130452062e-02  1.2111770266291379e-02  1.0867589810735507e-02  1.1327135218848657e-02  1.9746950313078382e-02  2.0218604702069053e-02  2.0741670583460482e-02  2.0202892741702668e-02  1.1386738550529255e-02  1.0571857813376481e-02  1.1877838587408880e-02  1.0139621992734028e-02  1.1040240118491359e-02  1.2287447996911009e-02  2.4372149768063085e-02  2.5071137864203577e-02  2.4252304481993368e-02  2.3656419244676059e-02  2.4493146148637655e-02  2.2079853954742223e-02  2.1863345096088182e-02  2.1111027856325321e-02  2.3512470865240540e-02  2.2784219915347063e-02  1.2332194845190703e-02  1.1091271387646887e-02  1.2049508597871402e-02  1.1461560215630436e-02  1.2736339507961027e-02  1.3585249631350636e-02  9.6945590846816004e-03  1.0762471350123422e-02  9.7058618200515159e-03  1.5878931541444288e-02  1.7172547633292651e-02  1.5802175721122875e-02  9.6406485739665496e-03  1.0532336129930688e-02  2.8611388796927102e-02  2.7032593254946058e-02  2.7283995915569043e-02  2.7018065841901438e-02  2.6764835953831233e-02  2.7791239681787420e-02  2.7594323165105360e-02  2.7529987017248521e-02  2.7993111587318122e-02  2.7756837381155905e-02  2.7318395083075458e-02  2.8331436042485319e-02  2.8120703226583416e-02  2.8159530344130990e-02  2.7951332997213987e-02  2.7694688043976196e-02  2.7375910805832352e-02  2.7608864614993574e-02  2.7160649710232951e-02  2.7490401606583111e-02  2.8529413168934419e-02  2.8481051670277910e-02  2.7298627450742418e-02  2.7761543149522325e-02  4.0147080310560163e-02  3.1810889529097719e-02  3.1854840692018084e-02  3.1804481304539473e-02  3.1644471780678002e-02  3.1639911547275731e-02  3.1704141956471990e-02  3.1727911600896351e-02  3.2322365790850689e-02  3.2330034365381524e-02  3.2408426566620956e-02  3.2410400959175079e-02  3.2321995900784481e-02  3.2233591072934616e-02  3.2543206495746622e-02  3.2518048783129208e-02  3.2573561178970950e-02  3.2477233634404787e-02  3.2531563505465579e-02  3.2487251343348636e-02  3.2584309517075874e-02  3.2637597597992229e-02  2.5204592954360627e-02  2.4842746323229564e-02  2.4526773992007481e-02  2.6272023238594858e-02  2.6056925292336709e-02  2.6559614823403702e-02  2.6850426412171127e-02  2.6999070964676960e-02  2.6368747565138961e-02  2.6394148117917078e-02  2.5984290668997139e-02  2.6291530119174147e-02  1.9238006742563919e-02  1.8640735833497801e-02  1.9440137125679373e-02  2.2725202554673477e-02  2.3076657387209216e-02  2.3357783223839034e-02  3.0436972374481543e-02  3.0624774077845942e-02  3.0527422433585132e-02  3.0302362447783872e-02  3.0380082466534203e-02  3.0253529642899041e-02  3.0565415332514667e-02  3.0552160379439808e-02  3.0452028039219564e-02  2.9756846392705538e-02  2.9688770859755791e-02  2.9541553374793465e-02  2.9623806018082788e-02  2.9814507076797586e-02  2.9658589654566948e-02  2.9720439554518127e-02  2.9747877824814799e-02  2.9996533538977105e-02  2.9886975216737229e-02  3.0077666246308473e-02  3.0115021166568695e-02  2.9931229858095546e-02  2.9886865467872174e-02  2.9883395426804800e-02  2.9956003890665966e-02  3.1450195365174100e-02  3.1349678358785521e-02  3.1431015360942442e-02  3.1317410284654186e-02  2.9136064512377609e-02  2.9093803648591161e-02  2.8779751190035854e-02  2.9194264322491222e-02  2.9468635933698514e-02  3.0666020335822119e-02  3.0577501244445398e-02  3.0394067371356737e-02  2.9694395543414770e-02  2.9403995628305202e-02  2.9614038751400354e-02  2.9849515796466310e-02  2.9537777855424698e-02  2.9769177845364835e-02  3.0040741858734819e-02  3.0280937825639679e-02  3.0190237600526963e-02  3.0124922650880709e-02  3.0451114072070205e-02  2.9009763717469425e-02  2.8944629517683351e-02  2.8909147142156002e-02  1.8554255963914714e-02  1.9265063839484939e-02  1.8118240587280392e-02  2.9030643452062643e-02  2.8980821965795527e-02  2.8991941908638984e-02  2.9038542985420197e-02  2.3491785171154300e-02  2.3548130879394540e-02  2.2949783103331067e-02  2.3448798323012852e-02  2.3986714552250290e-02  2.6702759056308568e-02  2.7191015154156228e-02  2.4977149002874500e-02  2.4767472618203990e-02  2.5185646687299883e-02  2.6423901856810119e-02  2.4559634134597590e-02  2.4083785322911649e-02  2.4418624961978920e-02  2.5569636599627309e-02  2.5975575006530575e-02  2.2513589301376903e-02  2.2431363204690635e-02  2.2523055905406410e-02  2.2496047836446174e-02  2.2538883313988709e-02  2.2595380764080769e-02  2.2695215478548265e-02  2.2946863354393120e-02  2.2846480339931963e-02  2.3125631308037839e-02  2.2721247152499825e-02  2.3017325728294992e-02  2.0593907723099509e-02  2.2463351059038888e-02  1.8447448474057767e-02  1.8715059199320701e-02  1.8783451834349429e-02  1.8451634614289839e-02  2.2478243875691230e-02  2.1720994150287179e-02  2.1682628039295881e-02  1.9531984364102490e-02  2.0240621815868748e-02  2.0046669877802226e-02  2.0312105942187117e-02  1.9734091303302441e-02  2.1043375189964780e-02  1.9055568495028114e-02  1.8670708400789535e-02  1.9041882084321646e-02  2.0581780432664874e-02  2.0995014474886598e-02  2.2292164665769696e-02  2.7615669064826338e-02  2.7128041461932539e-02  2.7517372133039706e-02  2.7966259159981459e-02  2.7832169279246713e-02  1.8910616780872483e-02  1.9970328426146090e-02  2.8226333917029608e-02  2.8310205319083639e-02  2.8075251298968283e-02  2.8836700534583572e-02  2.8869296171628603e-02  2.8727114017225996e-02  2.9035223198856132e-02  2.9045403552739282e-02  2.9021114764566161e-02  2.6845940886526455e-02  2.8043689611633851e-02  2.7810921590264902e-02  2.8182893838330364e-02  2.8820405460243417e-02  2.8847960150622312e-02  2.8710604054882682e-02  2.8647049314889664e-02  2.8744064689176924e-02  3.2362089958578491e-02  3.2346919051027698e-02  3.2252705455960290e-02  3.2290323541827801e-02  3.2260919566047173e-02  3.3064636462223490e-02  3.3090237674977763e-02  3.3110861215307479e-02  3.3144385707722004e-02  3.3063627789890415e-02  3.3079553600004211e-02  3.3047268039914549e-02  3.1551111098727012e-02  3.1583342777573783e-02  3.1404341391314775e-02  3.1715940793849505e-02  3.1840425501397783e-02  3.1957560116060810e-02  3.1979925616317920e-02  3.2386284375224235e-02  3.2438774623526234e-02  3.2309198879242565e-02  3.2252449339083694e-02  3.2169345749974439e-02  3.2111414460076176e-02  3.2334901305678870e-02  3.2231653002383183e-02  3.2020414807160891e-02  3.1859244227438299e-02  3.1960937246467196e-02  3.1219504688174658e-02  3.1378633037678003e-02  3.1532187224022380e-02  3.2563818195402966e-02  3.2603247533564195e-02  3.2889289295748324e-02  2.9383060115195956e-02  2.9249938867059427e-02  2.9265455747375019e-02  2.9390896599836642e-02  3.2353792183335103e-02  3.2297384788819640e-02  3.2355187655280518e-02  3.2290955962615005e-02  3.2223603734172900e-02  3.2422320561723075e-02  3.2475717054235756e-02  3.1927073821131025e-02  3.1753212973592286e-02  3.1645707294532782e-02  3.1531922777632955e-02  3.1439734441754602e-02  3.2155026265130233e-02  3.2077974446136706e-02  3.2001227606158998e-02  3.1915457376742409e-02  3.2736024583231264e-02  3.2837864784471489e-02  3.2780993494788913e-02  3.2718849667322976e-02  3.2823311702936245e-02  3.2986363232103612e-02  3.2912394475079307e-02  3.2975420809427405e-02  3.2731161211981358e-02  3.2695417579734883e-02  3.2759880817203567e-02  3.2892637017061438e-02  3.3043702564393339e-02  3.2775989122054365e-02  3.2847340244317180e-02  3.2846826161357805e-02  3.2830574915448212e-02  3.3205144166217476e-02  3.3257401396415656e-02  3.3153236828126806e-02  3.3019230095441082e-02  3.3075895147868947e-02  3.2992667266384446e-02  4.1381855081918044e-02  4.127744938