<?xml version="1.0"?>
<VTKFile type="UnstructuredGrid"  version="0.1"  >
<UnstructuredGrid>
<Piece  NumberOfPoints="6340" NumberOfCells="12376">
<Points>
<DataArray  type="Float64"  NumberOfComponents="3"  format="ascii">-0.0192050002515316 0.0205559991300106 0  -0.01988399960100651 0.02118599973618984 0  -0.02010999992489815 0.02020999975502491 0  -0.02064399980008602 0.02091299928724766 0  -0.01943200081586838 0.01963800005614758 0  -0.01904899999499321 0.02142900042235851 0  -0.01954199932515621 0.02214100025594234 0  -0.01908300071954727 0.02296300046145916 0  -0.01999399997293949 0.02284999936819077 0  -0.01859400048851967 0.02215900085866451 0  -0.00796900037676096 0.01797199994325638 0  -0.008657000027596951 0.01882199943065643 0  -0.008985999971628189 0.0178810004144907 0  -0.009681000374257565 0.01876999996602535 0  -0.02642600052058697 0.07266800105571747 0  -0.02741100080311298 0.07300999760627747 0  -0.02753599919378757 0.07221700251102448 0  -0.02648100070655346 0.06618399918079376 0  -0.02717800065875053 0.06683299690485001 0  -0.02731199935078621 0.06594199687242508 0  -0.02810000069439411 0.06629999727010727 0  -0.01392799988389015 0.08503799885511398 0  -0.01482699997723103 0.0848580002784729 0  -0.01418200042098761 0.0842519998550415 0  -0.02072799950838089 0.07902900129556656 0  -0.01972999982535839 0.07925999909639359 0  -0.020304000005126 0.07990899682044983 0  -0.0201600007712841 0.07837300002574921 0  -0.02161700092256069 0.02415600046515465 0  -0.02078000083565712 0.02433699928224087 0  -0.02113199979066849 0.0250489991158247 0  -0.02144400030374527 0.02577199973165989 0  -0.02198399975895882 0.02487700060009956 0  -0.02028900012373924 0.02523400075733662 0  -0.0199120007455349 0.02446299977600574 0  -0.01902800053358078 0.02457300014793873 0  -0.01941999979317188 0.02534699998795986 0  -0.02126000076532364 0.02342499978840351 0  -0.02217400074005127 0.02328700013458729 0  -0.02163000032305717 0.02221000008285046 0  -0.02115100063383579 0.02157999947667122 0  -0.02087399922311306 0.02265099994838238 0  -0.02037700079381466 0.02192600071430206 0  -0.01594199985265732 0.02190900035202503 0  -0.01644800044596195 0.02102600038051605 0  -0.01545399986207485 0.02102800086140633 0  -0.0168639998883009 0.02200200036168098 0  -0.01777200028300285 0.02198800072073936 0  -0.01729300059378147 0.02287399955093861 0  0.03741500154137611 0.07739099860191345 0  0.03730500116944313 0.07648199796676636 0  0.03842199966311455 0.07659199833869934 0  0.0378430001437664 0.08828700333833694 0  0.03849000111222267 0.08854400366544724 0  0.03745900094509125 0.08903799951076508 0  0.02086899988353252 0.09698600322008133 0  0.02113600075244904 0.09621100127696991 0  0.02188399992883205 0.09650000184774399 0  0.01993699930608273 0.09743200242519379 0  0.02022000029683113 0.09649600088596344 0  -0.009337999857962132 0.0933070033788681 0  -0.008426000364124775 0.09355700016021729 0  -0.009109999984502792 0.09414400160312653 0  -0.008186000399291515 0.09440000355243683 0  -0.02046200074255466 0.09234800189733505 0  -0.02072799950838089 0.09168499708175659 0  -0.01970900036394596 0.09194999933242798 0  -0.02141599915921688 0.09235800057649612 0  -0.0178229995071888 0.09807000309228897 0  -0.01818300038576126 0.09879600256681442 0  -0.0186110008507967 0.09805899858474731 0  -0.0129380002617836 0.09173999726772308 0  -0.01208900008350611 0.09191499650478363 0  -0.01276599988341331 0.09251199662685394 0  -0.01379300002008677 0.09157499670982361 0  -0.01311600022017956 0.09097900241613388 0  -0.01397099997848272 0.09081500023603439 0  -0.01666799932718277 0.09315799921751022 0  -0.01730000041425228 0.09373199939727783 0  -0.01755999960005283 0.09297800064086914 0  -0.01532899960875511 0.09199900180101395 0  -0.01620800048112869 0.09183699637651443 0  -0.01552299968898296 0.09124899655580521 0  0.008945000357925892 0.09068299829959869 0  0.009871999733150005 0.09058599919080734 0  0.009233999997377396 0.09132900089025497 0  0.007182999979704618 0.07801900058984756 0  0.007761000189930201 0.07715299725532532 0  0.008108999580144882 0.07792100310325623 0  -0.007670000195503235 0.01709000021219254 0  -0.006845999974757433 0.01731299981474876 0  -0.008549000136554241 0.01697199977934361 0  -0.009467000141739845 0.016847999766469 0  -0.01315000001341105 0.01679000072181225 0  -0.01340099982917309 0.01787899993360043 0  -0.01400799956172705 0.01698699966073036 0  -0.01257999986410141 0.01769099943339825 0  -0.01260800007730722 0.01872199960052967 0  -0.01175399962812662 0.01786500029265881 0  -0.01214099954813719 0.02165799960494041 0  -0.01262400019913912 0.02070200070738792 0  -0.01168499980121851 0.02073900029063225 0  -0.01121500041335821 0.01987800002098083 0  -0.01066100038588047 0.02072199992835522 0  -0.01217000000178814 0.01974100060760975 0  -0.01308699976652861 0.02167800068855286 0  -0.01451299991458654 0.02090799994766712 0  -0.01497799996286631 0.02186799980700016 0  -0.01403599977493286 0.02176699973642826 0  -0.009165000170469284 0.01971800066530704 0  -0.0110240001231432 0.03067800030112267 0  -0.01152899954468012 0.02980899997055531 0  -0.0105400001630187 0.02975100092589855 0  -0.005516999866813421 0.0294209998100996 0  -0.006020000204443932 0.0303569994866848 0  -0.006527999881654978 0.02949099987745285 0  -0.008186000399291515 0.01978199928998947 0  -0.005671000108122826 0.01923500001430511 0  -0.006659000180661678 0.01906800083816051 0  -0.005874999798834324 0.01838699914515018 0  -0.005956000182777643 0.01755299977958202 0  -0.004970000125467777 0.01782000064849854 0  0.04014600068330765 0.08472400158643723 0  0.04097000136971474 0.0841199979186058 0  0.04059600085020065 0.0853239968419075 0  0.03963299840688705 0.08555600047111511 0  0.01551000028848648 0.05837899819016457 0  0.01648399978876114 0.0581980012357235 0  0.01604299992322922 0.05910699814558029 0  0.02822900004684925 0.04264900088310242 0  0.02866999991238117 0.04159000143408775 0  0.02911099977791309 0.04225200042128563 0  0.03019499965012074 0.04649699851870537 0  0.03104300051927567 0.04575899988412857 0  0.03135000169277191 0.0464400015771389 0  0.02991499938070774 0.04983099922537804 0  0.02904699929058552 0.05000299960374832 0  0.02954900078475475 0.04905299842357635 0  0.02915499918162823 0.04831099882721901 0  0.0300890002399683 0.0481019988656044 0  0.02864000014960766 0.04924900084733963 0  0.02814700081944466 0.05018800124526024 0  0.02820499986410141 0.04853599891066551 0  0.02770799957215786 0.04784800112247467 0  0.02724700048565865 0.04874600097537041 0  0.0267340000718832 0.04804600030183792 0  0.03750000149011612 0.08700799942016602 0  0.03653899952769279 0.08711200207471848 0  0.03718600049614906 0.08637899905443192 0  0.03624900057911873 0.08645399659872055 0  0.007637999951839447 0.02439500018954277 0  0.008345999754965305 0.02485200017690659 0  0.007646999787539244 0.02546600066125393 0  0.008418000303208828 0.02581699937582016 0  0.02628199942409992 0.04894499853253365 0  0.02249499969184399 0.0513090007007122 0  0.02205000072717667 0.05221499875187874 0  0.02152499929070473 0.0514880008995533 0  0.02301199920475483 0.05203500017523766 0  0.02857599966228008 0.05093799903988838 0  0.0179040003567934 0.03514600172638893 0  0.01706800051033497 0.03504600003361702 0  0.0174579992890358 0.03414399921894073 0  0.01274800021201372 0.04056699946522713 0  0.01186299975961447 0.04059400036931038 0  0.01229699980467558 0.03969400003552437 0  0.0114120002835989 0.03972300142049789 0  0.01097800023853779 0.04062100127339363 0  0.01095999963581562 0.03884699940681458 0  0.01184600032866001 0.03882399946451187 0  0.01231400016695261 0.04146699979901314 0  -0.02804899960756302 0.06715299934148788 0  -0.02695799991488457 0.06767000257968903 0  -0.02800299972295761 0.06793300062417984 0  -0.02620399929583073 0.06709600239992142 0  -0.02588200010359287 0.06795399636030197 0  -0.0248390007764101 0.06823500245809555 0  -0.02539299987256527 0.06887999922037125 0  -0.0241870004683733 0.0676179975271225 0  -0.02381600067019463 0.06849800050258636 0  -0.02440899983048439 0.06913600116968155 0  -0.02811699919402599 0.06542400270700455 0  -0.01988600008189678 0.08077599853277206 0  -0.0208749994635582 0.08055499941110611 0  -0.02029800042510033 0.08888799697160721 0  -0.02120600081980228 0.08874499797821045 0  -0.0205450002104044 0.0881349965929985 0  -0.02144999988377094 0.08799599856138229 0  -0.02079500071704388 0.08737500011920929 0  -0.01974599994719028 0.09124399721622467 0  -0.01888800039887428 0.09139300137758255 0  -0.01876199990510941 0.09211300313472748 0  -0.0150950001552701 0.08406099677085876 0  -0.0120449997484684 0.07868800312280655 0  -0.01105100009590387 0.07891900092363358 0  -0.01163799967616796 0.07955899834632874 0  -0.01127600017935038 0.08040499687194824 0  -0.01067099999636412 0.07977499812841415 0  -0.01595400087535381 0.07614199817180634 0  -0.01640900038182735 0.07521799951791763 0  -0.01540500018745661 0.07546299695968628 0  -0.01440099999308586 0.07570800185203552 0  -0.01484599988907576 0.07478400319814682 0  -0.01915800012648106 0.07860899716615677 0  -0.01860499940812588 0.07793699949979782 0  -0.01961199939250946 0.07769399881362915 0  -0.02062099985778332 0.07745199650526047 0  -0.02503200061619282 0.06977800279855728 0  -0.02575100027024746 0.07202699780464172 0  -0.0253749992698431 0.07292699813842773 0  -0.02246100082993507 0.02385799959301949 0  -0.02274000085890293 0.02441000007092953 0  -0.02292400039732456 0.02494099922478199 0  -0.02312199957668781 0.02551300078630447 0  -0.02226199954748154 0.02562999911606312 0  -0.01950999908149242 0.02370700053870678 0  -0.01861800067126751 0.02380700036883354 0  -0.02040600031614304 0.02357699908316135 0  -0.02189400047063828 0.02273299917578697 0  -0.01738999970257282 0.01818300038576126 0  -0.01701599918305874 0.01894900016486645 0  -0.01813999935984612 0.01854999922215939 0  -0.01662099920213223 0.01780599914491177 0  -0.01815799996256828 0.0229640007019043 0  -0
[...]
<PointData  Scalars="pressure"> 
<DataArray  type="Float64"  Name="pressure"  format="ascii">3.7904924772162119e-02  3.7941149704744714e-02  3.7928712775446093e-02  3.7967980153608923e-02  3.7895613234417716e-02  3.7929391385580810e-02  3.7956705754279917e-02  3.7958421285406371e-02  3.7976377600528681e-02  3.7933173278062719e-02  3.7492187465434285e-02  3.7527943454870427e-02  3.7518406884678640e-02  3.7549686440033619e-02  2.5000974144100973e-02  2.6023009032753161e-02  2.6417435254072030e-02  2.6006408411281712e-02  2.6455233750024447e-02  2.6333621820087576e-02  2.7036932743205629e-02  1.8340043915461266e-02  1.8973985887340717e-02  1.8875721255977838e-02  2.2787223864265026e-02  2.2585855290559790e-02  2.2513745514851316e-02  2.2865635025205285e-02  3.8008086126280337e-02  3.7986000395313059e-02  3.7966837121270448e-02  3.7930659472863497e-02  3.7984207984864911e-02  3.7956375641330788e-02  3.7973528326810294e-02  3.7957479420347655e-02  3.7947700969041986e-02  3.8009790229962197e-02  3.8069794798759361e-02  3.8033640082899070e-02  3.7999544981945188e-02  3.7992844771363783e-02  3.7969127340663024e-02  3.7825634635178525e-02  3.7829533800579615e-02  3.7785947875653217e-02  3.7868227674063899e-02  3.7903023668092700e-02  3.7900026108712882e-02  2.9004177658587788e-02  2.6810612485154234e-02  2.8074565786476102e-02  5.0210149964330236e-02  5.1307176992122332e-02  5.2379104507064247e-02  3.1866512051041518e-02  3.1994732791160135e-02  3.4921573260773317e-02  2.9147865442387521e-02  2.9326047313927329e-02  1.1234097415985092e-02  1.0741184985251347e-02  1.0875244788715703e-02  1.0428744881699731e-02  1.7668965088889130e-02  1.8119261937183408e-02  1.6994375583674608e-02  1.9977986913359346e-02  1.4230904647161601e-02  1.4990481323274466e-02  1.5767961545876893e-02  1.3914269999191105e-02  1.3318533491417931e-02  1.3437840077792064e-02  1.4498668377209620e-02  1.4422917405239610e-02  1.5027303358010329e-02  1.5114135637593354e-02  1.5079964474829507e-02  1.5603474986750687e-02  1.5111894394740567e-02  1.5633427698894965e-02  1.5629729881526767e-02  4.9672443628615975e-03  5.2283776653295408e-03  5.6188182793874969e-03  1.8362405121311737e-03  2.8716088055613723e-03  2.7167545065435172e-03  3.7476238595986984e-02  3.7460453525435984e-02  3.7486135187911350e-02  3.7507942933354202e-02  3.7600478962331027e-02  3.7637736534947439e-02  3.7624292501016759e-02  3.7612585035404524e-02  3.7631399135895006e-02  3.7593614383526611e-02  3.7644010616233660e-02  3.7653620648422856e-02  3.7620135054792177e-02  3.7597460205760096e-02  3.7588566340797297e-02  3.7626731582654914e-02  3.7682794321766272e-02  3.7739835547044256e-02  3.7777755555097804e-02  3.7728396310009280e-02  3.7545562945141268e-02  3.7766590176414740e-02  3.7757984946793145e-02  3.7729170907240733e-02  3.7471924710271109e-02  3.7502108632032100e-02  3.7531990427066356e-02  3.7526188883393180e-02  3.7471733025042302e-02  3.7489995912189253e-02  3.7451300157122301e-02  3.7440505021621204e-02  3.7425348250641623e-02  4.1627124878272012e-02  4.0852447185346329e-02  4.2970474773952029e-02  4.3302589395784408e-02  2.5465828557467395e-02  2.6398040580024193e-02  2.5330872179418738e-02  4.0020722275642066e-02  3.9705213450740448e-02  3.9857479187100531e-02  4.0856767707121787e-02  4.0480684870305615e-02  4.0622673588019187e-02  4.0859385851663439e-02  4.0630251799128179e-02  4.0804153988403924e-02  4.0740209953851386e-02  4.0885697502919191e-02  4.0574236926419510e-02  4.0313946170318866e-02  4.0504488325270545e-02  4.0405281994578331e-02  4.0176027352950172e-02  4.0067373616359564e-02  4.6355336325395451e-02  4.6070459341638656e-02  4.4544132877232245e-02  4.4188096829510234e-02  3.7103418171257278e-02  3.7087913237818459e-02  3.7121696097464657e-02  3.7107711727817495e-02  3.9747123770555115e-02  3.6484589250276520e-02  3.5606325433845738e-02  3.5605906087454522e-02  3.6512634898928892e-02  4.0369202157744394e-02  3.7428391180031939e-02  3.7324760691840576e-02  3.7342487945942450e-02  3.6094766607834838e-02  3.5865215290145414e-02  3.6237087623015675e-02  3.6036023036793846e-02  3.5653854842807940e-02  3.6180400381996387e-02  3.6350534979146622e-02  3.5673882602901177e-02  2.6982526804634546e-02  2.5973422859060263e-02  2.6494842705583832e-02  2.5904419123602092e-02  2.5708319474309262e-02  2.5597386784470745e-02  2.5484647651931730e-02  2.5702628538117181e-02  2.5476724847484603e-02  2.5376112156272192e-02  2.6857101838720789e-02  2.2212080906049314e-02  2.2411711070223762e-02  1.8831301387148013e-02  1.9129409967853277e-02  1.9280421356105960e-02  1.9529857601122601e-02  1.9712558133722732e-02  1.7304928095825879e-02  1.6988507479342854e-02  1.6550248566656069e-02  1.9501468349343128e-02  1.8773382064977313e-02  1.7664044969839508e-02  1.8173918194958637e-02  1.7609678305919887e-02  1.7058072741758169e-02  2.2032122473511558e-02  2.2389248868269002e-02  2.1847290118636026e-02  2.1196658140424523e-02  2.1620435052103881e-02  2.2629776082780988e-02  2.2651102063720362e-02  2.2914687359060340e-02  2.3122184066606256e-02  2.5279343279562133e-02  2.4778333873978573e-02  2.4591115707869819e-02  3.8066359619357504e-02  3.8058527269723724e-02  3.8026798821580929e-02  3.8001506304075006e-02  3.7943626299247538e-02  3.7972142497802265e-02  3.7951002843775873e-02  3.7988097117297344e-02  3.8047229087286680e-02  3.7784857903033278e-02  3.7786455241527767e-02  3.7828487580146793e-02  3.7727504331239531e-02  3.7931838398634316e-02  3.7861281273659821e-02  3.7848182034851005e-02  3.7889665843907641e-02  3.7799509090084553e-02  3.7807044885455068e-02  3.7807141501763897e-02  3.7609321958607771e-02  3.7593379014308113e-02  3.7587864435029067e-02  3.7616206433802916e-02  3.7570269361221716e-02  3.7576454905868847e-02  3.7581917736541438e-02  3.7574914724821010e-02  3.7607709885374027e-02  4.6398081498554261e-02  4.7252753971644412e-02  4.8685901071475551e-02  3.9528732512350263e-02  4.1385670131380760e-02  4.1130112352184445e-02  3.3168845205994946e-02  3.3030255345665303e-02  3.2127891227132430e-02  2.6897771618827553e-02  5.3820002469861628e-02  5.4225908115165339e-02  5.1957949668951134e-02  5.1334236170534356e-02  5.3483453335984199e-02  5.3038551603048913e-02  4.3693702397853203e-02  4.2438266656688699e-02  4.1950576836755613e-02  4.0769990481595575e-02  4.8377941322113226e-02  5.0452143030745251e-02  4.9344605544182164e-02  4.9366157867334282e-02  4.8121698698099367e-02  4.7021142486416430e-02  4.7989753622728538e-02  2.3556040554605466e-02  2.1145302063400657e-02  2.1478321556327271e-02  2.6483280984824002e-02  2.7338043387268324e-02  2.5018447933801997e-02  2.6213926613973058e-02  1.2306049970417891e-02  1.2427453249101716e-02  1.2866213513192750e-02  1.2730740413847485e-02  1.1061007454602152e-02  9.1186267054289075e-03  9.2430526544529587e-03  9.0343026174388094e-03  1.0554592918370041e-02  1.9549869781626514e-02  1.6652355567525829e-02  1.7379586651300877e-02  1.5659704673886256e-02  1.6281641501190772e-02  1.4378454781377691e-02  1.3103209465689405e-02  1.3526337338367986e-02  1.3579605313289365e-02  1.3152453640783827e-02  1.2868339407613321e-02  1.3325263151265445e-02  1.2491895325655721e-02  1.5329254688993297e-02  1.5442328381283028e-02  1.6031628008032442e-02  1.6147745414513061e-02  1.3806606573447105e-02  1.2973169112335165e-02  1.2528510293391332e-02  1.4064914356353077e-02  1.4569836559606364e-02  1.4109582828781768e-02  1.4122075714644241e-02  1.3644028988408767e-02  1.4002426454630176e-02  1.4562308875585125e-02  1.4064851703241985e-02  1.5079541544276768e-02  1.4102005547529207e-02  1.3576214540256041e-02  1.4615025523055509e-02  1.4528086272886775e-02  1.5539535954006437e-02  1.5624584947975917e-02  1.4604983432911466e-02  7.6524018982780731e-03  7.9994320206236980e-03  8.0359462457158665e-03  8.3152783978187386e-03  8.6617697342889280e-03  8.7450499920136496e-03  8.3233374300823795e-03  8.1661548631163719e-03  1.7552911443157113e-03  2.3302499341531988e-03  1.5556384347482702e-03  2.1574549606510895e-03  2.4036161524753630e-03  3.5854823236244199e-03  2.7229560019390864e-03  3.6037629701486940e-03  2.8739785169535348e-03  3.5999497622588930e-03  1.3307468113161455e-02  1.4412927931568065e-02  1.4819604001128108e-02  1.2829105304431557e-02  1.1729316323461747e-02  2.6788050135374206e-03  2.0881265399567209e-03  3.1828909298880353e-03  7.2185403423630709e-03  7.6124498268820631e-03  7.7942902760385208e-03  8.3612257799520681e-03  8.4306067341061650e-03  8.1088779931769717e-03  8.6015988812052982e-03  9.3375651653740607e-03  7.9464096555489430e-03  7.2359630335815661e-03  6.7318753259145922e-03  7.4786550190100304e-03  4.1756195088274231e-03  4.3798363137325727e-03  5.5030136898151435e-03  3.1464513786362142e-03  5.3387092598152081e-03  1.3288968638234047e-02  1.3564331173188449e-02  1.2126983666505567e-02  2.7357387326673491e-02  2.7477246965912919e-02  2.8447216576929932e-02  3.4567302703450292e-02  3.3552580813370904e-02  3.4607005161682095e-02  3.3616640711737866e-02  3.4747854441747252e-02  3.3824954792764900e-02  3.3879964371435575e-02  3.7795190954194119e-02  3.7820102773681169e-02  3.7810598192626957e-02  1.9268007290486045e-02  1.9278213785675367e-02  1.9655485339306784e-02  1.8904790678494342e-02  1.9492081913036842e-02  1.8986093833542449e-02  1.8383363823354086e-02  1.9091658877236448e-02  1.0140569340514813e-02  1.2153133390726926e-02  1.1075818103573207e-02  1.0429749514174518e-02  3.2315267885820537e-02  3.1502537368333000e-02  3.2575093333685516e-02  3.3045033913390531e-02  3.1988388679011562e-02  3.2639893760632616e-02  3.3697085086138570e-02  3.4794873548961693e-02  3.4309275021619609e-02  3.4896058361128676e-02  3.4772243943782401e-02  3.5910305685059811e-02  3.3658243209302448e-02  6.6729514361064807e-03  6.1005352382430406e-03  6.6650208497463781e-03  8.4333875637795513e-03  8.2574483269413773e-03  8.0863965790854420e-03  5.4607083679556884e-03  4.5210653734280917e-03  4.9383570760641801e-03  4.0218678771347660e-03  5.7321628353772941e-03  6.0575978920636014e-03  3.8002442924897004e-03  4.3440546137414049e-03  4.5949576097727013e-03  5.9348522156559697e-03  7.4529775337252996e-03  7.7718401121163599e-03  7.0249535940298882e-03  6.6825212455263322e-03  6.1077998483154289e-03  2.6061711551310096e-03  3.7797838316958876e-03  1.7033196304045983e-03  1.5916417377623768e-03  8.8660344454609408e-04  3.9260489090067324e-03  6.2323712754631944e-03  4.8628717920906547e-03  6.2929986643668751e-03  3.7745576132171249e-02  3.7677868398477074e-02  3.7653168668976778e-02  3.7697982141573889e-02  3.7661107545167771e-02  3.7583819670314822e-02  3.7554923717068110e-02  3.7575358619291607e-02  3.7573563777879522e-02  3.7565292491296386e-02  3.7528411619814316e-02  3.7544355013663155e-02  3.7786817564997209e-02  3.7759059384287988e-02  3.7792034342392734e-02  3.7812547601664026e-02  3.7687174786789693e-02  3.7645090353269746e-02  3.7645569063348247e-02  3.7602036136315242e-02  3.7597526935093342e-02  3.7559096623782061e-02  3.7436905689557223e-02  3.7460216780605120e-02  3.7464460510851685e-02  3.7477102426866547e-02  3.7467459411633576e-02  3.7447926100283253e-02  3.7508045031936936e-02  3.7506908211820726e-02  2.6504604922899563e-02  2.7359752393222331e-02  2.6605324352755200e-02  2.6489077634268166e-02  2.6723351794588061e-02  3.3635285679894961e-02  3.4571197141847809e-02  3.4473851831332364e-02  3.3598724962523779e-02  3.3026814005882671e-02  3.3707335327798862e-02  3.9679255874349006e-02  3.9468986254145501e-02  3.9447309965440332e-02  2.6009139866256484e-02  4.0148791938891884e-02  4.0321444257407760e-02  4.0585268310736063e-02  3.9678606578563327e-02  3.5691097043820084e-02  3.5416068579267268e-02  3.7364739865444502e-02  3.7689778177439244e-02  4.1305776495860778e-02  4.0959091859038649e-02  4.1022811820633651e-02  4.1284297146555897e-02  4.0778671704561877e-02  4.1135773800757829e-02  4.1045726205280131e-02  3.9498322496879290e-02  4.0091709030523948e-02  4.0078297552094279e-02  4.0503568533584638e-02  4.0084912463999152e-02  4.0558017090743866e-02  4.0061085046852705e-02  4.0440329713164747e-02  4.0509871215997272e-02  4.0923738926572341e-02  4.0879507996144981e-02  4.0557630286166692e-02  4.0571779035561230e-02  3.8935694944140967e-02  3.9592773915600447e-02  3.8918959308818772e-02  3.8162171638266289e-02  3.8899582482038883e-02  3.8141361189400778e-02  4.1023712241143200e-02  4.0693136961978994e-02  4.0675322184786200e-02  4.0531960238124762e-02  4.0812247681745996e-02  2.1876628916321438e-02  2.0872650374876633e-02  2.0899796776931191e-02  2.9172205254831263e-02  2.9258036671447895e-02  3.0287605442575062e-02  2.8350851357403686e-02  1.5379184287357510e-02  1.4196487168004385e-02  1.5096108351272373e-02  1.4550681677663754e-02  1.5745134271687833e-02  1.6504032690818772e-02  2.4190475482322834e-02  2.5133454292247379e-02  2.4468993330642910e-02  2.3302406087999064e-02  2.3943088847375612e-02  2.1994887838668001e-02  2.2249563608999524e-02  2.1543060761578792e-02  2.3567126751817376e-02  2.2740154382253915e-02  1.9478719709413700e-02  1.8388876035521379e-02  1.8692827969377036e-02  1.9263316899550104e-02  2.0336882978431295e-02  2.0541195967677870e-02  1.5665575342052467e-02  1.6848837202027268e-02  1.6422477780589639e-02  2.3310552617974600e-02  2.3533262370684174e-02  2.2434165917550302e-02  1.9841096657785724e-02  2.0881303271088187e-02  4.0207957649546544e-02  4.1002053652493299e-02  4.1054929122682556e-02  4.1119330678842068e-02  4.0924312031939088e-02  4.0656802562112321e-02  4.0723140838004449e-02  4.0982836752301105e-02  4.0686112412372778e-02  4.0817703079656070e-02  4.0948688930858228e-02  4.0333948283333733e-02  4.0534450902836611e-02  4.0338182306419508e-02  4.0525096811007202e-02  3.9629872503465412e-02  3.9234097051611530e-02  3.7031777754180040e-02  3.6341989859367936e-02  3.6299022773233373e-02  4.0134426965787479e-02  4.0285633324136524e-02  4.0252620316849258e-02  4.0655234888957711e-02  4.2784262741112883e-02  3.7085898942044039e-02  3.7088479763757412e-02  3.7051964307511009e-02  3.7008699860307435e-02  3.7066500262856156e-02  3.7040596444320464e-02  3.7083638512559990e-02  3.7305186636160143e-02  3.7292866328817238e-02  3.7346261370634681e-02  3.7346279670714508e-02  3.7302948815854928e-02  3.7254269015866932e-02  3.7398244460017591e-02  3.7386526834027933e-02  3.7408569920771927e-02  3.7373705204134119e-02  3.7394377459141953e-02  3.7363039279145888e-02  3.7416608632977556e-02  3.7424170676289462e-02  3.5624852112319583e-02  3.5621599943370455e-02  3.4671139567129659e-02  3.8125203094646051e-02  3.7348281485913778e-02  3.8072241034438091e-02  3.8015981391333824e-02  3.8709598706952182e-02  3.7317712253511312e-02  4.0006374752165827e-02  3.9524124957432571e-02  3.9483056481245143e-02  3.0907798770648316e-02  2.9907916256975850e-02  3.0946048864758598e-02  3.6312212620295138e-02  3.6363312102959428e-02  3.7250758497898592e-02  3.7362596653430134e-02  3.7241976448789724e-02  3.7301284275728215e-02  3.7470046220513614e-02  3.7392876819489246e-02  3.7511674266699380e-02  3.7191623753362837e-02  3.7228830699359713e-02  3.7296007095901348e-02  3.8727608541481495e-02  3.8875053578175084e-02  3.8920741625769556e-02  3.8770639017618819e-02  3.8575593729561410e-02  3.8591620269279821e-02  3.8414417143138084e-02  3.8423176141228935e-02  3.8072366679964949e-02  3.8093474303777852e-02  3.7897493437318769e-02  3.7784340644826830e-02  3.7946692555224308e-02  3.8084366626489577e-02  3.8088304082816847e-02  3.7925858524064431e-02  3.6415569401812502e-02  3.6334274126020367e-02  3.6218019646091199e-02  3.6116891380523979e-02  3.5093171822510164e-02  3.5537014942282917e-02  3.4865084038028675e-02  3.4668257293719418e-02  3.5327419174764542e-02  3.7143449417183366e-02  3.6438528801695652e-02  3.6325152546042239e-02  3.5891778708776523e-02  3.5711833059890653e-02  3.4574077410159595e-02  3.5209887223856567e-02  3.4946525890630034e-02  3.5541131042268602e-02  3.5746218249180985e-02  3.5933010859538927e-02  3.6193206540706555e-02  3.5454901155879598e-02  3.5431340989424930e-02  2.4890769776088308e-02  2.4901460517567468e-02  2.4608774771730339e-02  1.3412880067080045e-02  1.4612971638388782e-02  1.3422423417649862e-02  2.5151057807823386e-02  2.5045867594547813e-02  2.5480681949830102e-02  2.6018309294120696e-02  2.0617166294677951e-02  2.0753537564853181e-02  2.0318467101042924e-02  2.0468051180052085e-02  2.0884079055296347e-02  2.1661683506752790e-02  2.2182579025509422e-02  2.1853950538516628e-02  2.3921035485928117e-02  2.4218400072046960e-02  2.2291872303934139e-02  2.1268977292339331e-02  2.1045159627215565e-02  2.1094066745807570e-02  2.1905227798324912e-02  2.2113264553376838e-02  2.0602658995814798e-02  1.9243097805026352e-02  2.1265256440339060e-02  1.8247109010034838e-02  1.9400808468360970e-02  1.8697401290078117e-02  1.9816786125796321e-02  2.0226894665094461e-02  2.1985509687295290e-02  2.2395515245668688e-02  1.9415428849056841e-02  1.9867583985743655e-02  1.8432358101900356e-02  1.7830899806638146e-02  1.3790473073593962e-02  1.4711968474180735e-02  1.4226551151130591e-02  1.3195983898698305e-02  1.8126749320501335e-02  1.7100575458121582e-02  1.7624700556903648e-02  1.2816457076929355e-02  1.4100375956869020e-02  1.3278393910634723e-02  1.4837128174160816e-02  1.3674234247045822e-02  1.6623780637962840e-02  1.5681860606246257e-02  1.5150517090790634e-02  1.6032265650700598e-02  1.8177721013081155e-02  1.5319152745913781e-02  1.6471214014975550e-02  2.2609371049835545e-02  2.2273212787590112e-02  2.2215761516542438e-02  2.2721495212615579e-02  2.2575836780250783e-02  1.4626678957424859e-02  1.5691395077864070e-02  2.3046959408416511e-02  2.3138734393078116e-02  2.2909506038012898e-02  2.4023064366722576e-02  2.4062058151349597e-02  2.3776626746465135e-02  2.5002201629700248e-02  2.4818880763159499e-02  2.4753499635602277e-02  2.2353549096133931e-02  2.3187849297171558e-02  2.2944279767757585e-02  2.3230181860743115e-02  2.5512488676170720e-02  2.6494839430475203e-02  2.5079632920229307e-02  2.5007885372026816e-02  2.4409009520714557e-02  3.7886077133934104e-02  3.7951605720402820e-02  3.7815437402708693e-02  3.7802671597668383e-02  3.7906920987282718e-02  3.7872592812834428e-02  3.7863094717516595e-02  3.7824807552221708e-02  3.7779182036265943e-02  3.7868009900881877e-02  3.7861058623439026e-02  3.7814683633920897e-02  3.7143543235911777e-02  3.7194522660005655e-02  3.7033442539600010e-02  3.7291791279850404e-02  3.7393252226671517e-02  3.7495779403101497e-02  3.7516244776850081e-02  3.7810587151315529e-02  3.7831420335510554e-02  3.7772086257709753e-02  3.7732068440565647e-02  3.7689362092914069e-02  3.7640451077637457e-02  3.7781488208675343e-02  3.7734670275322471e-02  3.7584910927933680e-02  3.7463349178484762e-02  3.7527710464650692e-02  3.6859283545236751e-02  3.6984125989016389e-02  3.7108134577984106e-02  3.7919119211250393e-02  3.7916160795008702e-02  3.7874420243523180e-02  3.4516489715556715e-02  3.4176313397690984e-02  3.4109475927837807e-02  3.4426360410396865e-02  3.7794571824293521e-02  3.7797727669106322e-02  3.7795664356909869e-02  3.7771933309401894e-02  3.7743440018250134e-02  3.7819529785295937e-02  3.7825950916437541e-02  3.7533289154270039e-02  3.7406515674814962e-02  3.7351935657050958e-02  3.7301698391075826e-02  3.7190696997369106e-02  3.7720556013466654e-02  3.7666558696727755e-02  3.7603377284984196e-02  3.7565376024596850e-02  3.7872975229965460e-02  3.7857174404147168e-02  3.7841605784387673e-02  3.7830784684827388e-02  3.7803959330979707e-02  3.7643496554988817e-02  3.7678906968751820e-02  3.7683190089038372e-02  3.7758080378678886e-02  3.7793962713685167e-02  3.7718789600553387e-02  3.7720676829563635e-02  3.7650806169839408e-02  3.7682138745106002e-02  3.7642027738263417e-02  3.7679249424355313e-02  3.7605667973986859e-02  3.7582908902047629e-02  3.7564327558988773e-02  3.7602183381608520e-02  3.7561528223911726e-02  3.7547690279874223e-02  3.7537615701794494e-02  4.5361510167288677e-02  4.583081266