<?xml version="1.0"?>
<VTKFile type="UnstructuredGrid"  version="0.1"  >
<UnstructuredGrid>
<Piece  NumberOfPoints="6340" NumberOfCells="12376">
<Points>
<DataArray  type="Float64"  NumberOfComponents="3"  format="ascii">-0.01921599917113781 0.02066699974238873 0  -0.01980599947273731 0.02128900028765202 0  -0.02005000039935112 0.02032000012695789 0  -0.02050299942493439 0.02099799923598766 0  -0.01945799961686134 0.01975199952721596 0  -0.01904099993407726 0.02153800055384636 0  -0.01945899985730648 0.02223999984562397 0  -0.01901100017130375 0.02306300029158592 0  -0.01983699947595596 0.02292600087821484 0  -0.0185989998281002 0.02226700074970722 0  -0.00901500042527914 0.01757100038230419 0  -0.009616999886929989 0.01848600059747696 0  -0.009952000342309475 0.01754700019955635 0  -0.01056000031530857 0.01850200071930885 0  -0.02388199977576733 0.0707160010933876 0  -0.02476599998772144 0.07096599787473679 0  -0.02491199970245361 0.07021299749612808 0  -0.02409300021827221 0.06457900255918503 0  -0.02472499944269657 0.06515000015497208 0  -0.0248589999973774 0.06429100036621094 0  -0.02558000013232231 0.06458000093698502 0  -0.01169999968260527 0.08313299715518951 0  -0.01252700015902519 0.08290400356054306 0  -0.0119810001924634 0.08239000290632248 0  -0.01832699961960316 0.07708399742841721 0  -0.01739900000393391 0.07737000286579132 0  -0.01787200011312962 0.07793299853801727 0  -0.01785900071263313 0.07651299983263016 0  -0.02123899944126606 0.02414100058376789 0  -0.02048500068485737 0.02436600066721439 0  -0.02076599933207035 0.02503599971532822 0  -0.0210110004991293 0.02572000026702881 0  -0.02153399959206581 0.02481899969279766 0  -0.02000500075519085 0.02526599913835526 0  -0.01969699934124947 0.02452000044286251 0  -0.01889500021934509 0.02465200051665306 0  -0.01921699941158295 0.02540400065481663 0  -0.02095399983227253 0.02345200069248676 0  -0.02177600003778934 0.02326400019228458 0  -0.02133999951183796 0.02225000038743019 0  -0.02093400061130524 0.02164199948310852 0  -0.02063900046050549 0.02270600013434887 0  -0.02022100053727627 0.02200499922037125 0  -0.01620100066065788 0.02199899964034557 0  -0.01669500023126602 0.02112199924886227 0  -0.0157880000770092 0.02109899930655956 0  -0.01703800074756145 0.02211499959230423 0  -0.01786199957132339 0.02209899947047234 0  -0.0173920001834631 0.02298299968242645 0  0.04018500074744225 0.07553599774837494 0  0.03991999849677086 0.07466699928045273 0  0.04114599898457527 0.07470999658107758 0  0.04240300133824348 0.0856110006570816 0  0.04314199835062027 0.08581200242042542 0  0.04206100106239319 0.08628199994564056 0  0.02465100027620792 0.0938429981470108 0  0.02486299909651279 0.09315600246191025 0  0.02571599930524826 0.09337999671697617 0  0.02367299981415272 0.09426800161600113 0  0.02388600073754787 0.09343899786472321 0  -0.007404000032693148 0.09094399958848953 0  -0.00662099989131093 0.09121199697256088 0  -0.007207999937236309 0.09170600026845932 0  -0.006411999929696321 0.09197899699211121 0  -0.01718400046229362 0.08942099660634995 0  -0.0174579992890358 0.08879099786281586 0  -0.01652700081467628 0.0891060009598732 0  -0.01804200001060963 0.08936399966478348 0  -0.01469899993389845 0.09479899704456329 0  -0.01500700041651726 0.09543299674987793 0  -0.01538100000470877 0.09474900364875793 0  -0.0105189997702837 0.08935400098562241 0  -0.009778999723494053 0.08955900371074677 0  -0.01035999972373247 0.0900610014796257 0  -0.01127499993890524 0.08915100246667862 0  -0.01069399993866682 0.08865000307559967 0  -0.01145000010728836 0.08844699710607529 0  -0.01376799959689379 0.09041599929332733 0  -0.01431099977344275 0.0908999964594841 0  -0.01456299982964993 0.09019400179386139 0  -0.01261700037866831 0.08944299817085266 0  -0.01340300031006336 0.08923699706792831 0  -0.01281499955803156 0.08874399960041046 0  0.01086900010704994 0.08877400308847427 0  0.01187799964100122 0.08865399658679962 0  0.01125499978661537 0.08932700008153915 0  0.007592999842017889 0.07776699960231781 0  0.008089999668300152 0.07694599777460098 0  0.008600999601185322 0.07764700055122375 0  -0.00877000018954277 0.01665000058710575 0  -0.008012999780476093 0.0168089997023344 0  -0.009581999853253365 0.01658900082111359 0  -0.01042999979108572 0.01652600057423115 0  -0.01381999999284744 0.01669999957084656 0  -0.01401299983263016 0.0178190004080534 0  -0.01460300013422966 0.01694200001657009 0  -0.01326499972492456 0.01758299954235554 0  -0.01325500011444092 0.01863599941134453 0  -0.01249799970537424 0.01771000027656555 0  -0.01272500026971102 0.02159499935805798 0  -0.0132020004093647 0.02064800076186657 0  -0.01233599986881018 0.02063599973917007 0  -0.01193299982696772 0.01972799934446812 0  -0.01139399968087673 0.02055500075221062 0  -0.01281700003892183 0.0196480005979538 0  -0.0135939996689558 0.0216630008071661 0  -0.0149320000782609 0.02095199935138226 0  -0.0153219997882843 0.02193300053477287 0  -0.0144640002399683 0.02180000022053719 0  -0.01005300041288137 0.01943499967455864 0  -0.01138599961996078 0.03070399910211563 0  -0.01188100036233664 0.02984599955379963 0  -0.01097299996763468 0.02973799966275692 0  -0.006364000029861927 0.02909299917519093 0  -0.006794000044465065 0.03008300065994263 0  -0.007290999870747328 0.02923399955034256 0  -0.00915099959820509 0.0194339994341135 0  -0.006874999962747097 0.01867800019681454 0  -0.007778000086545944 0.01859099976718426 0  -0.007091999985277653 0.01782700046896935 0  -0.007195000071078539 0.01697999984025955 0  -0.006289999932050705 0.01717000082135201 0  0.04447900131344795 0.08234500139951706 0  0.04523599892854691 0.08171699941158295 0  0.04509099945425987 0.08289600163698196 0  0.04408400133252144 0.08315800130367279 0  0.01415299996733665 0.05721199885010719 0  0.0151199996471405 0.0569240003824234 0  0.01474700029939413 0.05787700042128563 0  0.02576000057160854 0.04012500122189522 0  0.0261170007288456 0.03902300074696541 0  0.02662700042128563 0.03962700068950653 0  0.028158999979496 0.04369499906897545 0  0.0289670005440712 0.04286399856209755 0  0.0293589998036623 0.04350399971008301 0  0.02821899950504303 0.04704299941658974 0  0.0273279994726181 0.0473099984228611 0  0.02775200083851814 0.0463079996407032 0  0.02726300060749054 0.04561800137162209 0  0.0282170008867979 0.04530100151896477 0  0.02682399936020374 0.04660899937152863 0  0.02640699967741966 0.04759800061583519 0  0.02629500068724155 0.0459510013461113 0  0.02570899948477745 0.04532999917864799 0  0.02531900070607662 0.04627399891614914 0  0.0247189998626709 0.04564600065350533 0  0.04189100116491318 0.08450599759817123 0  0.04084499925374985 0.08463200181722641 0  0.04148000106215477 0.08396799862384796 0  0.04045699909329414 0.08406800031661987 0  0.005268000066280365 0.02271999977529049 0  0.005923000164330006 0.02315099909901619 0  0.005317999981343746 0.02382100000977516 0  0.006025999784469604 0.02413900010287762 0  0.02433899976313114 0.04658899828791618 0  0.02065799944102764 0.04938599839806557 0  0.02028200030326843 0.05033700168132782 0  0.01968099921941757 0.04967899993062019 0  0.02125399932265282 0.05004300177097321 0  0.02693499997258186 0.0482960008084774 0  0.01515000034123659 0.03338500112295151 0  0.01435799989849329 0.03331800177693367 0  0.01468299981206656 0.03237299993634224 0  0.01056400034576654 0.03916399925947189 0  0.009751999750733376 0.03921699896454811 0  0.01011400017887354 0.03827600181102753 0  0.009301000274717808 0.03832900151610374 0  0.008938999846577644 0.03926799818873405 0  0.008852999657392502 0.03743999823927879 0  0.009664000011980534 0.03739000111818314 0  0.01020199991762638 0.04010500013828278 0  -0.02551599964499474 0.06539200246334076 0  -0.02450600080192089 0.06595899909734726 0  -0.02545700035989285 0.06613499671220779 0  -0.02382799983024597 0.06546700000762939 0  -0.02351499907672405 0.06630399823188782 0  -0.02255499921739101 0.06664299964904785 0  -0.02304800041019917 0.06721600145101547 0  -0.0219700001180172 0.06610299646854401 0  -0.02161199972033501 0.06696400046348572 0  -0.02214200049638748 0.06752800196409225 0  -0.02560400031507015 0.06374199688434601 0  -0.01742500066757202 0.0787699967622757 0  -0.01834199950098991 0.07849399745464325 0  -0.01722799986600876 0.08624099940061569 0  -0.01806100085377693 0.086046002805233 0  -0.01750100031495094 0.08552800118923187 0  -0.01833000034093857 0.08533699810504913 0  -0.01777599938213825 0.08480899780988693 0  -0.01659700088202953 0.08845300227403641 0  -0.01581699959933758 0.08865000307559967 0  -0.01567200012505054 0.08931899815797806 0  -0.01282200030982494 0.08214999735355377 0  -0.01044499967247248 0.07738900184631348 0  -0.0095210000872612 0.07767499983310699 0  -0.01000699959695339 0.07822799682617188 0  -0.009615000337362289 0.07903899997472763 0  -0.009111000224947929 0.07849700003862381 0  -0.01417800039052963 0.07472900301218033 0  -0.01464200019836426 0.07382799685001373 0  -0.01371499989181757 0.07413099706172943 0  -0.01278700027614832 0.07443299889564514 0  -0.01323799975216389 0.0735350027680397 0  -0.01692900061607361 0.0768050029873848 0  -0.01647399924695492 0.07621700316667557 0  -0.01740700006484985 0.07591699808835983 0  -0.01834299974143505 0.07561899721622467 0  -0.02269800007343292 0.06809200346469879 0  -0.0232939999550581 0.07016400247812271 0  -0.0229129996150732 0.07103399932384491 0  -0.02200699970126152 0.02380000054836273 0  -0.02222999930381775 0.02432000078260899 0  -0.02236700057983398 0.02482100017368793 0  -0.02251599915325642 0.02536099962890148 0  -0.02174600027501583 0.02553199976682663 0  -0.01936499960720539 0.02378500066697598 0  -0.01855600066483021 0.02390800043940544 0  -0.0201799999922514 0.02363199926912785 0  -0.02155099995434284 0.02274199947714806 0  -0.01765899918973446 0.01828099973499775 0  -0.01728899963200092 0.01904300041496754 0  -0.01833000034093857 0.01867000013589859 0  -0.01697099953889847 0.0178810004144907 0  -0.0181719996035099 0.02307100035250187 0  -0.016572
[...]
<PointData  Scalars="pressure"> 
<DataArray  type="Float64"  Name="pressure"  format="ascii">5.3216501478154571e-02  5.3111567614939729e-02  5.3202196404830017e-02  5.3091822916644708e-02  5.3273676021847405e-02  5.3105214614546190e-02  5.2961093212690227e-02  5.2779391313666567e-02  5.2777711083558845e-02  5.2973654742309674e-02  5.2433558735687287e-02  5.2340235076801168e-02  5.2593881536228244e-02  5.2513359368426757e-02  2.3217380190857787e-02  2.3060491819792379e-02  2.3432058065344142e-02  2.6351298122478217e-02  2.6074971770491898e-02  2.6442986258314767e-02  2.6246117423154771e-02  1.5969032020634526e-02  1.6248508888381578e-02  1.6258699746179418e-02  1.9466504840295367e-02  1.9129901297848948e-02  1.9050808180910470e-02  1.9545922227061897e-02  5.2271226908759474e-02  5.2287550718400383e-02  5.2011173069630642e-02  5.1707770558863136e-02  5.1988156284354853e-02  5.1993064536654962e-02  5.2300150434645608e-02  5.2289838169795773e-02  5.1985245259004595e-02  5.2515539092924737e-02  5.2443824625116153e-02  5.2743949351240771e-02  5.2932510547740903e-02  5.2748996522756324e-02  5.2954498805993497e-02  5.2863517495154770e-02  5.3073222126937533e-02  5.2967038047847539e-02  5.2932100757254519e-02  5.2991838416119506e-02  5.2762810218573528e-02  3.8047177124649703e-03  2.8639846935974485e-03  3.4955325215928791e-03  8.5383520202038966e-03  8.0401866788495577e-03  9.1848571961731587e-03  1.8470151417472245e-02  1.7252485189749197e-02  1.8697166163173518e-02  1.8193454756102047e-02  1.6735603473975850e-02  1.3479804979458113e-02  1.3122332481177106e-02  1.3549625273936806e-02  1.3193559134689899e-02  1.6045008499491673e-02  1.6178597516937059e-02  1.6038051954429304e-02  1.6004828006752049e-02  1.5598436261994971e-02  1.5588295811152380e-02  1.5615322282718645e-02  1.4627474607186226e-02  1.4372847140858572e-02  1.4645663836231813e-02  1.4867973162102199e-02  1.4635742805557465e-02  1.4886327202933931e-02  1.5578779290968247e-02  1.5675258684937247e-02  1.5719974383061563e-02  1.5284728643231323e-02  1.5473877646904600e-02  1.5301704544887853e-02  1.5879047487363232e-03  1.4446896004738658e-03  1.9276642056407335e-03  9.6579086593800399e-03  1.0441400821689217e-02  9.3186657189773432e-03  5.2518121507071851e-02  5.2357360335257855e-02  5.2664265157405341e-02  5.2785411863134103e-02  5.3112274966700623e-02  5.3073795222131813e-02  5.3159264824959161e-02  5.3009022052717646e-02  5.2914529143171747e-02  5.2911208090343158e-02  5.2260855588360335e-02  5.2582774166609600e-02  5.2393562542891341e-02  5.2507901758952327e-02  5.2191271376849376e-02  5.2696184460560583e-02  5.2447747014423646e-02  5.2856004464662001e-02  5.2742578640782953e-02  5.2606720330032920e-02  5.2176010483966383e-02  4.8265631326665906e-02  4.8780928655157270e-02  4.8561986722742118e-02  4.6882094881403248e-02  4.6745932721606313e-02  4.7302343679561779e-02  5.1957448139269606e-02  5.1519341982764699e-02  5.1861952659749737e-02  5.1889512551090276e-02  5.2108639828738798e-02  5.1735117185249271e-02  6.2819868576658262e-03  5.8314307558126836e-03  6.1978224395532570e-03  6.6738579042077608e-03  1.4416969226661327e-02  1.5361759876579447e-02  1.4504877520140142e-02  3.7673581389091410e-02  3.7488888252738335e-02  3.7601361339167173e-02  3.7866312045577021e-02  3.7746084156823664e-02  3.7840445284843191e-02  3.6864996962168162e-02  3.6520115120005539e-02  3.7057432427173319e-02  3.7185188516995892e-02  3.7441270662768561e-02  3.6687260472159047e-02  3.6026755481540572e-02  3.6781006827052466e-02  3.6813607966274857e-02  3.6258586750741013e-02  3.6287439414446496e-02  8.3127962691305103e-03  8.8953871424389958e-03  8.1658606864536860e-03  8.5945995156038995e-03  4.4553004354220063e-02  4.4169581632009632e-02  4.4215524508388157e-02  4.3852941631614427e-02  3.5600747930421395e-02  3.0459274294977107e-02  2.9022498678394480e-02  2.9284006667893651e-02  3.0215975745423753e-02  3.5818976742500147e-02  3.8008708914541924e-02  3.8135160303765625e-02  3.8381818721263783e-02  3.5520365194949444e-02  3.5462171262123650e-02  3.6159692406496413e-02  3.6152421342590342e-02  3.5433665947460599e-02  3.6814250661912074e-02  3.6796566465909931e-02  3.4746790038852317e-02  2.5888363899471006e-02  2.5686695002348565e-02  2.5505908511915105e-02  2.5907482500942384e-02  2.5461994973091352e-02  2.5196558447855327e-02  2.4928512002037117e-02  2.5420547119501830e-02  2.4903485847473029e-02  2.4664640953564774e-02  2.6651441582361043e-02  1.8658723367203811e-02  1.8965574688262075e-02  1.6427671184944384e-02  1.6603026925114190e-02  1.6623412267047111e-02  1.6810573143573988e-02  1.6845120691743980e-02  1.6081765221876577e-02  1.5952121811651582e-02  1.5907653812151829e-02  1.6534489866605540e-02  1.7036163105380763e-02  1.6744874592111020e-02  1.6782720903313324e-02  1.6522717439069658e-02  1.6488620298550985e-02  1.8851149191257480e-02  1.9296820065811484e-02  1.8807644343884156e-02  1.8368733664444789e-02  1.8757292386811331e-02  1.9189604293521987e-02  1.9242949695956958e-02  1.9629149550657667e-02  2.0008842945172755e-02  2.4420433447101139e-02  2.3432686927379022e-02  2.2961910012780917e-02  5.2249304085416851e-02  5.2032249859879143e-02  5.1834868262716736e-02  5.1606641024245371e-02  5.1679290820398849e-02  5.2562951196197201e-02  5.2540196144999898e-02  5.2555763468168509e-02  5.2603577071834010e-02  5.3330042982087683e-02  5.3295656171332167e-02  5.3341950752156711e-02  5.3294233291404022e-02  5.2778783608444964e-02  5.2689165387927062e-02  5.2385715271985600e-02  5.2479449475410674e-02  4.8473988168959779e-02  4.7966662314433327e-02  4.8122411847126449e-02  5.2043063194804687e-02  5.1180581851082631e-02  5.0684878926290727e-02  5.0977528163519824e-02  5.0900124723180160e-02  5.1375284902641552e-02  5.0165694331355419e-02  4.9610455155405478e-02  4.9929296768338939e-02  6.2236599421884933e-03  5.5705103215514017e-03  6.2338551224836673e-03  6.9634783766149974e-03  7.3040073166957039e-03  7.6013804098904224e-03  6.2044861943995932e-03  6.4725328243777948e-03  5.8424818189436100e-03  3.0026927405815557e-03  1.1497458097011460e-02  1.2469050627931168e-02  1.1474398926965987e-02  1.0515460635351533e-02  1.0691344493676230e-02  9.8782711821333094e-03  8.9441891757033563e-03  8.2362149945193874e-03  8.5155979877121341e-03  7.8337628681340293e-03  8.4256256834865043e-03  9.4053941308035443e-03  9.8355618116214259e-03  1.0638679382957292e-02  1.0905559796502422e-02  1.0181654594626471e-02  9.0722195104888832e-03  1.7484262715924809e-02  1.7128447283695055e-02  1.5858680002661749e-02  1.5479968515631475e-02  1.6922538070729135e-02  1.6051702502618712e-02  1.7856313539534416e-02  1.4112741167175081e-02  1.4426675887631912e-02  1.4396597003969152e-02  1.4080004139116500e-02  1.3072545140845292e-02  1.1313180647430003e-02  1.1188133412423164e-02  1.0543280693496675e-02  1.3625571391012021e-02  1.5902381936616500e-02  1.5710349730482964e-02  1.5705797722127886e-02  1.5727770078488756e-02  1.5673139587730787e-02  1.5833601104042125e-02  1.5604495444021097e-02  1.5707349465417426e-02  1.5625757731937338e-02  1.5535127440231399e-02  1.3372451146634438e-02  1.3669805215334455e-02  1.3235285697317856e-02  1.4598730534325009e-02  1.4704418250016942e-02  1.4915858922729144e-02  1.5505293844609323e-02  1.4362059063719970e-02  1.4670485486949474e-02  1.4701770944454889e-02  1.5633744132994825e-02  1.5645679859080355e-02  1.5539485470142628e-02  1.5419926822402438e-02  1.5425651057262169e-02  1.4876060473162658e-02  1.5089362440982194e-02  1.5088942172694592e-02  1.5087714312803598e-02  1.5270221333162678e-02  1.5099590931280306e-02  1.5430012231765794e-02  1.5783694440050094e-02  1.5784605678076383e-02  1.5616716397370767e-02  1.5275956550418315e-02  1.3147227556721854e-02  1.2907466872569349e-02  1.2510122314933078e-02  1.2231631181754729e-02  1.3729919401887777e-02  1.3300846293325830e-02  1.3481613905145601e-02  1.3863525025209603e-02  1.6448755967941198e-02  1.6198923701071313e-02  1.6588851934655331e-02  1.6278579228959499e-02  1.6164972054138967e-02  1.5862897204762080e-02  1.6087702602293506e-02  1.5911115496699223e-02  1.6019588760129277e-02  1.5795018540892793e-02  1.6077779640903428e-02  1.5227847029325010e-02  1.6235913065322759e-02  1.5209135071355195e-02  1.6033467933701851e-02  1.6826387578411546e-02  1.6794851065301774e-02  1.6295805738546665e-02  1.3077675221650424e-02  1.2580955693529870e-02  1.2364503439402388e-02  1.1741511633914157e-02  1.1320181533510226e-02  1.2137260279141309e-02  8.8912809268766688e-04  1.4383694618367517e-03  1.0550216262437584e-03  5.7151418293403203e-04  7.8090537475718549e-04  1.3375148860750108e-03  1.1522130757808297e-02  1.2642955287141312e-02  1.2601688286994504e-02  1.1587843793158326e-02  1.1484197372102059e-02  1.5356887494470960e-02  1.4650323101803808e-02  1.4651807559850547e-02  1.6481913696249358e-02  1.6647720652614613e-02  1.7900887548805436e-02  2.5916804222811753e-02  2.4626204704932628e-02  2.6439600840966963e-02  2.5123567442646811e-02  2.8817588830622451e-02  2.7277583785366630e-02  2.7723341582512408e-02  4.7784139006476288e-02  4.7515250700444614e-02  4.7317633632043818e-02  2.1883898231517294e-02  2.2316128212767228e-02  2.2242105696044442e-02  2.0312581611504434e-02  1.9687254425823413e-02  1.9492603006729340e-02  1.9442733854601116e-02  1.8622750807588875e-02  1.3070441340242590e-03  1.4727576610910533e-03  1.3045073266653023e-03  9.9296673610063928e-04  1.2533167755590643e-02  1.2738306598430407e-02  1.3664782006297869e-02  1.2408118521156645e-02  1.1387272604789613e-02  1.1100815439056860e-02  1.2267434179820746e-02  1.3700754286627946e-02  1.2106596805077256e-02  9.9516020910432879e-03  1.0445725081048261e-02  1.1681502787435285e-02  8.7951017541608289e-03  3.2936677566362807e-03  2.6505761657270367e-03  3.0633984656420147e-03  6.7776260502499814e-03  6.3425440436343300e-03  5.7897502174072395e-03  1.0190026144468994e-04  8.1387128397167503e-05  0.0000000000000000e+00  3.7302065928999581e-05  6.2213165236640064e-04  3.6604949476098415e-04  1.8254112329610470e-04  3.0955156780466692e-04  1.1020455083952741e-03  1.8714132972949380e-03  3.0153343275050575e-03  3.5885029695529444e-03  2.9211180633519265e-03  2.3898130968849265e-03  2.4561236963872336e-03  8.3995279223898003e-03  9.1093218544521098e-03  8.7681403308961896e-03  7.8551593107843640e-03  8.2926868687394056e-03  1.0315895006578193e-02  6.7988505063197287e-03  6.9278062898816568e-03  7.8454042223429325e-03  5.3048904680697805e-02  5.3261606053465270e-02  5.3212634609748129e-02  5.3205572763563171e-02  5.2834875023344434e-02  5.3046282067414754e-02  5.2972123205823819e-02  5.2560651204571131e-02  5.2731309836053702e-02  5.2856196414743532e-02  5.2888186131369704e-02  5.2727340614639032e-02  4.8978684317379652e-02  4.9336669217488867e-02  4.9543520176617076e-02  4.9176773313792534e-02  4.8841277974012422e-02  4.9112756612327745e-02  4.8545272127570357e-02  4.8806366241603359e-02  4.8225845525643657e-02  4.8456220288943579e-02  4.6303131720928974e-02  4.8605980911771846e-02  4.8367855523734932e-02  4.8991246522945592e-02  4.8124815469264060e-02  4.7728656533953411e-02  5.2130839313020462e-02  5.1695384205579412e-02  2.6846717841204751e-02  2.7010618774506986e-02  2.7819230249628672e-02  2.7474501831025365e-02  2.7715458176871256e-02  3.6780629154797344e-02  3.8134271256623581e-02  3.7811555719464991e-02  3.8341590602477306e-02  3.7635691463271594e-02  3.8835919059935914e-02  2.2533698864473296e-02  2.0728994412383732e-02  2.1067661789780524e-02  2.5021186178182664e-03  2.5806322764067524e-02  2.6388897805988392e-02  2.7543467507540130e-02  6.0247977552738982e-03  5.5395974840125985e-03  5.3065162887897125e-03  5.8258045991980544e-03  5.6025579197829219e-03  3.6013014007221934e-02  3.6637091918020420e-02  3.5957087668182793e-02  3.6738749944769680e-02  3.6769556981581804e-02  3.5790081152001885e-02  3.6315403221852262e-02  2.7662153216371371e-02  2.9462784265235738e-02  2.8034451121001697e-02  3.1076655042494766e-02  3.0816545177372440e-02  2.9801990698991313e-02  3.4574623037422147e-02  3.5544161685074967e-02  3.5119983625336172e-02  3.4778833217354484e-02  3.3769650828223176e-02  3.3520142489984674e-02  3.4451753323303198e-02  3.1874376026638500e-02  3.2611265831188743e-02  3.0976239925021042e-02  2.9189044002363933e-02  2.9865370795490329e-02  2.7971285489419618e-02  3.2634781646606749e-02  3.2862677588167008e-02  3.1785209150108421e-02  2.9061898260274159e-02  3.0881033689934830e-02  1.4972876304229863e-02  1.5281432850417317e-02  1.5186492953542255e-02  1.8331947280920444e-02  1.8675731381816520e-02  1.9837005221604358e-02  1.7696170205853040e-02  1.8666148964872179e-02  1.9170521976171615e-02  1.9156713891024912e-02  1.8737389168682912e-02  1.8146498125138483e-02  1.7941249000684899e-02  2.0303868545417211e-02  2.1051454775562632e-02  1.9731735781615616e-02  1.9758181666136691e-02  2.0946668700344222e-02  1.8471994754234472e-02  1.7637849345299602e-02  1.7577674756179960e-02  1.9081501426489844e-02  1.8658855051043841e-02  1.5133987939877493e-02  1.5904006954707860e-02  1.5617793783637309e-02  1.5422008869156765e-02  1.4750265327820783e-02  1.4392808506642943e-02  1.7745438786783672e-02  1.7028697306684538e-02  1.7188121607472750e-02  8.5412172120677733e-03  7.8342268055208303e-03  7.7989689490884240e-03  1.5672709068623034e-02  1.5327131553519689e-02  3.7750410122089739e-02  3.7059256358546698e-02  3.7494345492574271e-02  3.7265510962492671e-02  3.6607242453732466e-02  3.7686192033370841e-02  3.7577441473217316e-02  3.7633636447638105e-02  3.7716878531246667e-02  3.7550835484013556e-02  3.7288992738819748e-02  3.7472167141260677e-02  3.7496855438930742e-02  3.7210750169189108e-02  3.7241545349105724e-02  3.5658790943736696e-02  3.4826453843412937e-02  3.2467941837815248e-02  3.1227928510009415e-02  3.1540503763965722e-02  3.7440198107702181e-02  3.7646486787433792e-02  3.6171847698269408e-02  3.7239102477250846e-02  7.9098710179495834e-03  4.3453970001737181e-02  4.3759226994278741e-02  4.3394720762931889e-02  4.2648647038342757e-02  4.2721211819676239e-02  4.2994428312984598e-02  4.3119745662389207e-02  4.4859874864634483e-02  4.4542921658002478e-02  4.5131371413852213e-02  4.5443695135556052e-02  4.5166326714359668e-02  4.4609816221436289e-02  4.6030185194902963e-02  4.5731317734309967e-02  4.6348628472347463e-02  4.5417962140442324e-02  4.6069333390656990e-02  4.5443640755349117e-02  4.6694601468802291e-02  4.6974944295414663e-02  2.8741760528308194e-02  2.8449166564760913e-02  2.7126033527889861e-02  3.2498060754879488e-02  3.1372074464703609e-02  3.2689808446002763e-02  3.2857264026612834e-02  3.3813607430091687e-02  3.1612539000266157e-02  3.4941773388314397e-02  3.3868136139458591e-02  3.4191417822601135e-02  1.5620432118587355e-02  1.5392454797139840e-02  1.6500308435028008e-02  2.3961671362600020e-02  2.5225166935343827e-02  2.5967932249404205e-02  3.8772967113316500e-02  3.9007429202027405e-02  3.8706052421531051e-02  3.8455869001153928e-02  3.8489673788540062e-02  3.8184183877337914e-02  3.7948161183807290e-02  3.8246055034957892e-02  3.7869758786608691e-02  3.7220300486273269e-02  3.7231057666417690e-02  3.7349231007832377e-02  3.7330615105953063e-02  3.7207151706069523e-02  3.7227527314806969e-02  3.7170227593848783e-02  3.7289252702842932e-02  3.7361666167168510e-02  3.7528117842563130e-02  3.7505996178267442e-02  3.7596098217574196e-02  3.7666422862156282e-02  3.7477070722415975e-02  3.7372423220410872e-02  3.7530245541883424e-02  3.9361358495064377e-02  3.8767316372248971e-02  3.8887500746718637e-02  3.8264609487117934e-02  3.2048921090673095e-02  3.2485025746810767e-02  3.1357067366657027e-02  3.1666273827623596e-02  3.2759328709987788e-02  3.8349711588712851e-02  3.6203057149257561e-02  3.5601270096789983e-02  3.3758912667443651e-02  3.3114289286840251e-02  3.2163033970549960e-02  3.3206409813200874e-02  3.2438075704009132e-02  3.3469835688969461e-02  3.4169081487481941e-02  3.4861422264040126e-02  3.4991054823221478e-02  3.3999593783054255e-02  3.4674688017475717e-02  2.3687673867856151e-02  2.3798338086606807e-02  2.3160675800806458e-02  1.7285742249491066e-02  1.7741141218233579e-02  1.7723182969609473e-02  2.4127848214270133e-02  2.3910248244516843e-02  2.5153804121288554e-02  2.6149978778017183e-02  1.7243929183511458e-02  1.7292131754167377e-02  1.6995851551320156e-02  1.7193302018519555e-02  1.7486214194792314e-02  1.8443524921729449e-02  1.8874896335114678e-02  1.8058919766264579e-02  1.7896349583200900e-02  1.8188210405954818e-02  1.8719681687153458e-02  1.7803690611730039e-02  1.7549906230873980e-02  1.7731415803566328e-02  1.8288080184975668e-02  1.8590219426122032e-02  1.6104116188751700e-02  1.6200928775766163e-02  1.6184583245099679e-02  1.6273473922721389e-02  1.6336107723839470e-02  1.6416822525068306e-02  1.6504658560528549e-02  1.6717517786429579e-02  1.6537108344180308e-02  1.6777564057521323e-02  1.6647601939366086e-02  1.6884455471400887e-02  1.5969166353029685e-02  1.6182531222932492e-02  1.4285532857143193e-02  1.4682245743311981e-02  1.4647977861411199e-02  1.4241820723877963e-02  1.6546021352605318e-02  1.6251386332187968e-02  1.6269484120506099e-02  1.5283583651362394e-02  1.5617288470563925e-02  1.5604385199566778e-02  1.5642119826999212e-02  1.5306171375702445e-02  1.5968370427859785e-02  1.5047582597301636e-02  1.4716470456296857e-02  1.5062895679757195e-02  1.5971307591083072e-02  1.5936207513852010e-02  1.6453930735675089e-02  1.9297118216573643e-02  1.8874595482793802e-02  1.9253888477841909e-02  1.9750605770923014e-02  1.9723446514393516e-02  1.8259578109324080e-02  1.8281835074250543e-02  2.0265762865410764e-02  2.0274968677647526e-02  2.0212796092839262e-02  2.1714202897715692e-02  2.1811041824561676e-02  2.1264424568641662e-02  2.3787859142783085e-02  2.3398433290036269e-02  2.3231873469194097e-02  1.8815943577231924e-02  2.0093130004015823e-02  1.9696442274233162e-02  2.0158849716131185e-02  2.3626866526152854e-02  2.3813474681440867e-02  2.2817912740502891e-02  2.2435037219709561e-02  2.2675997845497117e-02  5.1368531769485692e-02  5.1346728944809107e-02  5.1040548833998653e-02  5.1050500250662850e-02  5.1077358728830465e-02  5.3272379069896250e-02  5.3317980242228100e-02  5.3226522774685474e-02  5.3233749494469858e-02  5.3116843974526443e-02  5.3234639236631937e-02  5.2593886692651838e-02  4.8411828079827406e-02  4.8275565423559139e-02  4.7872319203186645e-02  4.8817716796591630e-02  4.9347862935261569e-02  4.9851178210669186e-02  4.9726255134912307e-02  5.0219578977089403e-02  5.0108825469542387e-02  4.9686993321794028e-02  4.9785711959595656e-02  4.9247530894587707e-02  4.9367689125673020e-02  5.0292330546851532e-02  4.9150655085825806e-02  4.8825500059796891e-02  4.8416355438622868e-02  4.8954999938362158e-02  4.7490845883930599e-02  4.8015318764668899e-02  4.8552866483443813e-02  5.1638541502397758e-02  5.1615813459372245e-02  5.2136515935861300e-02  4.1966529321755416e-02  4.1221990772607638e-02  4.1419889467858184e-02  4.2120585102827159e-02  4.8273462716860255e-02  4.7790061816792018e-02  4.8912574397122335e-02  4.8398585243776833e-02  4.8494001749547974e-02  4.9461707476467089e-02  4.9329063822412977e-02  4.8294349011944494e-02  4.7892530899487515e-02  4.7392089565210092e-02  4.6921549780845270e-02  4.6992407595646053e-02  4.7990686685641867e-02  4.8098212473679777e-02  4.8192834747691558e-02  4.7694565670332756e-02  5.1415743159299122e-02  5.1737469051182691e-02  5.1297596536086301e-02  5.0803023534835609e-02  5.1143051136032937e-02  5.0749089661978893e-02  5.0495425259469269e-02  5.1017585474545629e-02  4.9901711148227917e-02  5.0103715311840887e-02  4.9650155753464341e-02  5.0749664282577552e-02  5.1249971320798393e-02  4.9389207274648531e-02  4.9673724423766087e-02  4.9957244579471399e-02  4.9370606389555802e-02  5.1808059793277642e-02  5.1969791674297917e-02  5.1639146682953566e-02  5.0380791892384508e-02  5.0595857778431057e-02  5.0070155783430506e-02  5.6178459531367455e-03  4.886019020