<?xml version="1.0"?>
<VTKFile type="UnstructuredGrid"  version="0.1"  >
<UnstructuredGrid>
<Piece  NumberOfPoints="6340" NumberOfCells="12376">
<Points>
<DataArray  type="Float64"  NumberOfComponents="3"  format="ascii">-0.01941699907183647 0.02072899974882603 0  -0.02006899937987328 0.02137999981641769 0  -0.0203000009059906 0.02040000073611736 0  -0.02082699909806252 0.02113099955022335 0  -0.01965299993753433 0.019811000674963 0  -0.01925200037658215 0.02160399965941906 0  -0.01972400024533272 0.02233400009572506 0  -0.01926299929618835 0.0231500007212162 0  -0.02016899921000004 0.02306799963116646 0  -0.01879799924790859 0.02232800051569939 0  -0.008937999606132507 0.01761999912559986 0  -0.009545000270009041 0.01853399910032749 0  -0.009878999553620815 0.01759600080549717 0  -0.01049099955707788 0.01855099946260452 0  -0.02494299970567226 0.07422199845314026 0  -0.02585400082170963 0.07460799813270569 0  -0.02601500041782856 0.07383000105619431 0  -0.02543799951672554 0.0677340030670166 0  -0.0260429996997118 0.06842800229787827 0  -0.02623699977993965 0.06753399968147278 0  -0.02694999985396862 0.06793999671936035 0  -0.01252400036901236 0.0860769972205162 0  -0.01340200006961823 0.08592399954795837 0  -0.01282500009983778 0.08527100086212158 0  -0.01924999989569187 0.08025500178337097 0  -0.01829900033771992 0.0804390013217926 0  -0.0188170000910759 0.08111900091171265 0  -0.01873799972236156 0.07957000285387039 0  -0.02179200015962124 0.02447599917650223 0  -0.02094599977135658 0.02460700087249279 0  -0.02130400016903877 0.02535999938845634 0  -0.02162200026214123 0.02612300030887127 0  -0.02216600067913532 0.02524000033736229 0  -0.02044999971985817 0.02549500018358231 0  -0.0200789999216795 0.02469800040125847 0  -0.01919900067150593 0.02477799914777279 0  -0.01958400011062622 0.02557500079274178 0  -0.02142900042235851 0.02370299957692623 0  -0.02235299907624722 0.02362100034952164 0  -0.02180000022053719 0.02247999981045723 0  -0.02132700011134148 0.02182500064373016 0  -0.02104499936103821 0.02289899997413158 0  -0.02055500075221062 0.02214699983596802 0  -0.01625600084662437 0.02201499976217747 0  -0.01675700023770332 0.02113799937069416 0  -0.01581699959933758 0.02111100032925606 0  -0.01712599955499172 0.02213500067591667 0  -0.01800600066781044 0.02214000001549721 0  -0.01752699911594391 0.02301999926567078 0  0.04216200113296509 0.07889500260353088 0  0.04179999977350235 0.0780860036611557 0  0.0431010015308857 0.07823500037193298 0  0.04528199881315231 0.08891899883747101 0  0.04607899859547615 0.08918999880552292 0  0.04496899992227554 0.08969999849796295 0  0.02710100077092648 0.09791000187397003 0  0.02727399952709675 0.09710399806499481 0  0.02819399908185005 0.0974079966545105 0  0.02609699964523315 0.09837199747562408 0  0.02625999972224236 0.09739699959754944 0  -0.006719000171869993 0.09451799839735031 0  -0.005810999777168036 0.09469500184059143 0  -0.006393000017851591 0.09534099698066711 0  -0.005477999802678823 0.09551999717950821 0  -0.01805900037288666 0.09398599714040756 0  -0.01840800046920776 0.09329299628734589 0  -0.01737000048160553 0.09354200214147568 0  -0.01899700053036213 0.09402599930763245 0  -0.01443799957633018 0.0999239981174469 0  -0.01467799954116344 0.1006930023431778 0  -0.01523800007998943 0.09995199739933014 0  -0.01058499980717897 0.09312199801206589 0  -0.009695000015199184 0.09326600283384323 0  -0.01027700025588274 0.09391800314188004 0  -0.01148299966007471 0.09297599643468857 0  -0.01090100035071373 0.09232500195503235 0  -0.01179900020360947 0.09217999875545502 0  -0.01412400044500828 0.09474000334739685 0  -0.0146660003811121 0.09536699950695038 0  -0.0150560000911355 0.09457699954509735 0  -0.01296900026500225 0.09347400069236755 0  -0.01388300023972988 0.09332700073719025 0  -0.01328899990767241 0.09268499910831451 0  0.01213600020855665 0.0912880003452301 0  0.01319599989801645 0.09119100123643875 0  0.01258600037544966 0.09196200221776962 0  0.007853000424802303 0.07808099687099457 0  0.008317999541759491 0.07727800309658051 0  0.00891099963337183 0.07798299938440323 0  -0.008689999580383301 0.01669999957084656 0  -0.007918000221252441 0.01685900054872036 0  -0.009504999965429306 0.01663899980485439 0  -0.0103559996932745 0.01657599955797195 0  -0.01377000007778406 0.01672999933362007 0  -0.01397399976849556 0.01784400083124638 0  -0.01456900034099817 0.01696600019931793 0  -0.01321300026029348 0.01761499978601933 0  -0.01320699974894524 0.01866500079631805 0  -0.01244099996984005 0.01774699985980988 0  -0.01268600020557642 0.02161999978125095 0  -0.01316600013524294 0.02067199908196926 0  -0.01228700019419193 0.02066599950194359 0  -0.01187799964100122 0.01976400054991245 0  -0.01133800018578768 0.02059200033545494 0  -0.01276800036430359 0.01967700012028217 0  -0.01357199996709824 0.02168099954724312 0  -0.01493099983781576 0.02096199989318848 0  -0.01534599997103214 0.02194499969482422 0  -0.01446000020951033 0.02181099914014339 0  -0.009983999654650688 0.01948300004005432 0  -0.01138199958950281 0.03071399964392185 0  -0.01188100036233664 0.02985499985516071 0  -0.01095400005578995 0.02975299954414368 0  -0.006302000023424625 0.02913299947977066 0  -0.0067349998280406 0.03012200072407722 0  -0.007232999894768 0.02927299961447716 0  -0.009078999981284142 0.01948099955916405 0  -0.006767000071704388 0.01872700080275536 0  -0.007689000107347965 0.01863900013267994 0  -0.006982999853789806 0.01787599921226501 0  -0.007083999924361706 0.01703000068664551 0  -0.006159999873489141 0.01721999980509281 0  0.04724200069904327 0.08534800261259079 0  0.0480009987950325 0.08486200124025345 0  0.04792699962854385 0.08588899672031403 0  0.04687900096178055 0.08608099818229675 0  0.01512799970805645 0.05797199904918671 0  0.0161300003528595 0.05778000131249428 0  0.01571200042963028 0.05870800092816353 0  0.02766400016844273 0.04186800122261047 0  0.02806999906897545 0.04078700020909309 0  0.02857300080358982 0.04145599901676178 0  0.03001799993216991 0.04580200091004372 0  0.03088000044226646 0.04505100101232529 0  0.03126600012183189 0.04575999826192856 0  0.02997799962759018 0.04926199838519096 0  0.02904600091278553 0.04941499978303909 0  0.02951600030064583 0.04843800142407417 0  0.02903199940919876 0.04766499996185303 0  0.03002800047397614 0.04746200144290924 0  0.02854599989950657 0.04862900078296661 0  0.02808400057256222 0.0495930016040802 0  0.02801899984478951 0.04788399860262871 0  0.02743400074541569 0.04717399924993515 0  0.02700099907815456 0.04809299856424332 0  0.02640200033783913 0.04737700149416924 0  0.04465800151228905 0.08758500218391418 0  0.04355999827384949 0.08768799901008606 0  0.04418300092220306 0.08692800253629684 0  0.04310800135135651 0.08700200170278549 0  0.006192999891936779 0.022902000695467 0  0.006918000057339668 0.0233559999614954 0  0.006233000196516514 0.02400200068950653 0  0.007017999887466431 0.02434499934315681 0  0.02597899921238422 0.0482960008084774 0  0.02209099940955639 0.05072300136089325 0  0.02167100086808205 0.05164799839258194 0  0.02107599936425686 0.05091400071978569 0  0.02268199995160103 0.05145800113677979 0  0.02861000038683414 0.05038300156593323 0  0.01686099916696548 0.03407799825072289 0  0.0160130001604557 0.03395799919962883 0  0.0163819994777441 0.03303400054574013 0  0.01180600002408028 0.03956399857997894 0  0.01091300044208765 0.03957299888134003 0  0.01132600009441376 0.03865300118923187 0  0.01043200027197599 0.03866299986839294 0  0.01001899968832731 0.03958100080490112 0  0.009952000342309475 0.03775199875235558 0  0.01084600016474724 0.03774499893188477 0  0.01139300037175417 0.0404839999973774 0  -0.02683800086379051 0.06879600137472153 0  -0.02577400021255016 0.06925900280475616 0  -0.02673600055277348 0.06957899779081345 0  -0.02510800026357174 0.06864099949598312 0  -0.02474099956452847 0.06948799639940262 0  -0.02373999916017056 0.06971599906682968 0  -0.02421200089156628 0.07039500027894974 0  -0.02317200042307377 0.06905999779701233 0  -0.02275799959897995 0.06992699950933456 0  -0.02326700091362 0.07060100138187408 0  -0.02703399956226349 0.06705299764871597 0  -0.01839100010693073 0.08197300136089325 0  -0.01933399960398674 0.08179599791765213 0  -0.01831099949777126 0.09033499658107758 0  -0.01920000091195107 0.09021899849176407 0  -0.01861900091171265 0.08955699950456619 0  -0.01950499974191189 0.08944500237703323 0  -0.01892399974167347 0.08877400308847427 0  -0.01749799959361553 0.09279700368642807 0  -0.01663400046527386 0.09292899817228317 0  -0.01640000008046627 0.09368900209665298 0  -0.01370500028133392 0.08511199802160263 0  -0.01106499973684549 0.07949099689722061 0  -0.01011800020933151 0.07967499643564224 0  -0.01064800005406141 0.08034899830818176 0  -0.01027399953454733 0.08119100332260132 0  -0.009727000258862972 0.08052299916744232 0  -0.01486799959093332 0.07714899629354477 0  -0.01534499973058701 0.07625199854373932 0  -0.01438399963080883 0.07644599676132202 0  -0.01342300046235323 0.07664000242948532 0  -0.01389100030064583 0.07574599981307983 0  -0.01778299920260906 0.079755999147892 0  -0.01728899963200092 0.07906000316143036 0  -0.01825099997222424 0.07886900007724762 0  -0.01921599917113781 0.07868000119924545 0  -0.02380700036883354 0.07127799838781357 0  -0.02434100024402142 0.07355500012636185 0  -0.02393599972128868 0.07442600280046463 0  -0.02264600060880184 0.02422500029206276 0  -0.02292999997735023 0.02480999939143658 0  -0.02312799915671349 0.02538100071251392 0  -0.02334100008010864 0.02599599957466125 0  -0.02245200052857399 0.02603499963879585 0  -0.01968299970030785 0.02391799911856651 0  -0.01879500038921833 0.02398700080811977 0  -0.02057499997317791 0.02381899952888489 0  -0.02206799946725368 0.02303400076925755 0  -0.01772099919617176 0.01829800009727478 0  -0.01734700053930283 0.01906000077724457 0  -0.01841999962925911 0.01868999935686588 0  -0.01700299978256226 0.01789500005543232 0  -0.01836300082504749 0.02312899939715862 0 
[...]
<PointData  Scalars="pressure"> 
<DataArray  type="Float64"  Name="pressure"  format="ascii">5.3343627614905437e-02  5.3567933601454724e-02  5.3430822167739783e-02  5.3634945606738406e-02  5.3224923344078336e-02  5.3492396055207919e-02  5.3706729817604826e-02  5.3808385964421106e-02  5.3897760299251724e-02  5.3572502963441973e-02  5.0636156930118296e-02  5.0924160150378324e-02  5.0746025318694488e-02  5.1037371578092947e-02  3.2099484263138682e-02  3.1909596200691684e-02  3.2598548886162683e-02  3.7546924235936655e-02  3.7157871462367459e-02  3.7683039079314883e-02  3.7499450546218345e-02  1.8081807984373872e-02  1.8784201120492977e-02  1.8511749451909490e-02  2.5004397438105650e-02  2.4321108197844516e-02  2.4262711869571147e-02  2.5104713136334882e-02  5.4237024241786481e-02  5.4209671640562979e-02  5.4320646876200571e-02  5.4403886173998203e-02  5.4337188875781733e-02  5.4301204588914062e-02  5.4165342146825168e-02  5.4113851607252239e-02  5.4270326142858857e-02  5.4111236663932458e-02  5.4179278019168067e-02  5.3991282531386436e-02  5.3828635466751984e-02  5.3953787880421517e-02  5.3773645444418684e-02  5.3045223979506485e-02  5.2908723301184235e-02  5.2700354275477521e-02  5.3242187799391771e-02  5.3400573637678521e-02  5.3537563631187515e-02  1.5656514737355159e-02  1.3599289725189473e-02  1.5661136595285258e-02  3.0845084892337865e-02  3.0901550951929917e-02  3.2416195406185171e-02  3.8881864282817084e-02  3.7720554807679538e-02  4.0280053320196900e-02  3.7442267711636550e-02  3.6166899598481114e-02  1.2489142671291864e-02  1.2044907266923595e-02  1.2213609132512375e-02  1.1815179373682224e-02  1.7783702955862457e-02  1.8160899802302771e-02  1.7812840901153291e-02  1.7929434369898932e-02  1.4205943845743856e-02  1.3848902066522176e-02  1.4398642440928854e-02  1.4880762490048740e-02  1.4343053525327006e-02  1.4455280579907496e-02  1.5413161059504960e-02  1.5313782994131069e-02  1.5873400774676104e-02  1.6045786490535525e-02  1.6032389727727553e-02  1.6518273551834113e-02  1.6002201241818767e-02  1.6484880094907256e-02  1.6457280478018553e-02  3.1546156669427089e-03  3.9369083552916947e-03  4.3017274940074512e-03  7.1032262283230972e-03  7.3312328999753130e-03  7.5341980538352026e-03  5.0549822807130954e-02  5.0502585644427660e-02  5.0619069173805688e-02  5.0722227108830953e-02  5.1404266843753751e-02  5.1549255352335094e-02  5.1596886884617096e-02  5.1345227089755051e-02  5.1523335488210989e-02  5.1219035819772052e-02  5.2283404975742638e-02  5.2041166631260703e-02  5.1896386338958454e-02  5.1561058833945142e-02  5.1747850701322921e-02  5.1683690063285173e-02  5.2433878410444876e-02  5.2465497104682769e-02  5.2849108513047444e-02  5.2640499405345431e-02  5.1243196294879688e-02  5.5767898709585692e-02  5.5394399830178666e-02  5.5412304734288050e-02  5.4780836268933930e-02  5.5316230118506268e-02  5.5019752825102658e-02  5.1171684277446963e-02  5.0914200654612607e-02  5.0856633410673285e-02  5.0626806099419774e-02  5.0509488471966395e-02  5.0602702267473286e-02  2.5662894544021514e-02  2.5607268274659457e-02  2.6106624889932623e-02  2.6336693328599978e-02  2.1464277053501755e-02  2.2947836153034647e-02  2.1105583700678953e-02  4.8232739050274628e-02  4.8086936718854736e-02  4.8322651205654821e-02  4.9440770709418234e-02  4.9358893656009456e-02  4.9557497684584347e-02  4.8209896193330118e-02  4.7790006806673113e-02  4.8446664221513197e-02  4.8603557668344323e-02  4.8963712836355269e-02  4.7984050128916780e-02  4.7176135376351278e-02  4.8082776321587146e-02  4.8044810877626555e-02  4.7391112764350041e-02  4.7314964063411132e-02  2.8824914436918592e-02  2.9205560504793997e-02  2.7779131819195640e-02  2.7966339265474701e-02  5.1801260115962797e-02  5.1701769532439212e-02  5.1794066246951542e-02  5.1675954124128370e-02  4.6524323047358901e-02  4.0419712058495011e-02  3.8782095787670300e-02  3.9047171125365029e-02  4.0228404928966399e-02  4.6953308268065652e-02  4.8085495118356539e-02  4.8258625391421450e-02  4.8399812618705920e-02  4.5412927626300642e-02  4.5364256659686776e-02  4.6265882343693054e-02  4.6256168424208072e-02  4.5323858402707577e-02  4.7109616759488326e-02  4.7085724369045664e-02  4.4445141722024961e-02  3.6958958872376005e-02  3.6562759899005634e-02  3.6363481234138503e-02  3.6849800583772338e-02  3.6095487865578722e-02  3.5591270908753414e-02  3.5152976394704320e-02  3.5945550171665896e-02  3.5056299778026760e-02  3.4671340170465283e-02  3.8229482828462460e-02  2.3541064177828627e-02  2.4145461449186483e-02  1.9469349174297566e-02  1.9807378369624901e-02  1.9921341481455523e-02  2.0239576525671783e-02  2.0371432461669947e-02  1.8168963001332278e-02  1.7793568365045753e-02  1.7391210195789101e-02  1.9211756880813214e-02  1.7594527029524777e-02  1.6418094861066022e-02  1.7012539666624214e-02  1.6532629628394940e-02  1.5896925941852963e-02  2.2967793077861270e-02  2.3962957599639598e-02  2.2672408873431370e-02  2.1364796604168346e-02  2.2298512855358325e-02  2.4344949146302086e-02  2.4361750321269283e-02  2.5203692694873769e-02  2.5980976687668602e-02  3.4267521307854265e-02  3.2494491567614726e-02  3.1607402324522443e-02  5.4262523771953702e-02  5.4334859243054069e-02  5.4392622147508209e-02  5.4438843495894222e-02  5.4409129236903997e-02  5.4001120394734828e-02  5.3924414239655341e-02  5.4064839983789512e-02  5.4090855563910106e-02  5.2565199259357528e-02  5.2584388597448239e-02  5.2784380110765389e-02  5.2319473289532417e-02  5.3686236617609101e-02  5.3390616401032799e-02  5.3562819686374559e-02  5.3692565787708771e-02  5.5687354534400615e-02  5.6038679789192705e-02  5.5909907359554936e-02  5.2129731885060621e-02  5.2712908721061880e-02  5.3040502523692135e-02  5.3139370207270900e-02  5.2619391030444593e-02  5.2302671594640665e-02  5.3365859138780572e-02  5.3705290038649933e-02  5.3810204995195544e-02  2.7272220685583447e-02  2.6868591590454852e-02  2.8189289339453940e-02  2.4187637088667592e-02  2.5444231658901754e-02  2.5407937278184613e-02  1.8989835579699577e-02  1.9150621471163018e-02  1.8006364803877812e-02  1.4136475639331486e-02  3.5501407107609101e-02  3.7099104610171157e-02  3.4843743008238746e-02  3.3343023911016512e-02  3.4476081667171699e-02  3.3480472861051505e-02  2.8091332736081515e-02  2.6701467635751739e-02  2.6736105888453016e-02  2.5390498801325927e-02  2.9909770378434716e-02  3.1787338033095261e-02  3.1790272853944646e-02  3.2670981401071574e-02  3.2613493313269709e-02  3.1082160554788411e-02  3.0316218309568529e-02  3.3953871672476092e-02  3.2137181667904302e-02  3.1380885834908813e-02  3.3752992967854667e-02  3.5477769793765532e-02  3.3606356745323293e-02  3.5783802849420412e-02  1.3439108524111400e-02  1.3569755765986704e-02  1.3939068671314747e-02  1.3799409197643978e-02  1.2262545661682389e-02  1.0269808914830708e-02  1.0260598284350369e-02  9.8883618221058643e-03  1.1945491610588988e-02  1.7513506603011916e-02  1.5223088736163778e-02  1.5720106323065874e-02  1.5484638742868560e-02  1.4936929165255660e-02  1.5077926953063854e-02  1.4288276418688307e-02  1.4734627332514934e-02  1.4716151295588228e-02  1.4279161380094975e-02  1.3230836216226562e-02  1.3489623744078321e-02  1.2713911362204570e-02  1.5732764519302337e-02  1.5990569813055897e-02  1.6426019544360647e-02  1.6947066907987425e-02  1.4758967970332958e-02  1.4056117321717186e-02  1.3656132321371327e-02  1.5137600424608592e-02  1.5573577984771951e-02  1.5132774411402738e-02  1.5119104287778571e-02  1.4677550538641271e-02  1.4967289641728908e-02  1.5486790816502690e-02  1.5042791457790389e-02  1.5949188170759354e-02  1.5092009652011551e-02  1.4611828229995003e-02  1.5581343005656046e-02  1.5572090144534222e-02  1.6477444640974052e-02  1.6509792419692710e-02  1.5549308184559558e-02  9.6670621698150740e-03  9.8981059948526611e-03  9.9646225937444193e-03  1.0077926769091862e-02  1.0376225108512558e-02  1.0441437513826467e-02  1.0117556643180004e-02  9.9874752494018299e-03  3.1987767490907204e-03  4.1490504596942493e-03  3.4232503778169610e-03  3.1357632261627515e-03  3.7926774318407727e-03  4.0221994705080637e-03  3.2515034540129897e-03  3.5075380197333861e-03  3.7862440773127996e-03  4.4927780389467376e-03  2.3700636933709249e-02  2.4472336110337684e-02  2.5817135663160760e-02  2.2417541082561124e-02  2.1550300722755700e-02  6.1519038590028205e-03  5.1720508370959491e-03  6.5310189319973712e-03  9.8775494773056128e-03  1.0058025253917701e-02  1.0394599775442064e-02  1.0084245748293084e-02  1.0087289893911090e-02  1.0026039318701720e-02  8.1180701026160144e-03  9.3237164732645136e-03  7.8011463121019503e-03  6.6587890197454605e-03  6.3582639980083282e-03  7.5869048666783352e-03  7.5690819698169820e-03  7.1944961475705511e-03  7.8954126020773750e-03  6.9859599516781355e-03  8.1794378039348678e-03  1.2280011175764759e-02  1.2317686588347157e-02  1.1535225049492070e-02  2.4453009613915604e-02  2.4834552815752836e-02  2.6377354175801615e-02  3.5528975622300944e-02  3.4032841489339861e-02  3.5977284515161814e-02  3.4476793113756690e-02  3.8241820374505554e-02  3.6601657561112409e-02  3.7032944775442750e-02  5.6127118507582958e-02  5.6379131419081074e-02  5.6467454318601104e-02  1.2966150196818679e-02  1.3129545486575255e-02  1.4465685803371897e-02  1.1548524838156275e-02  1.2884711621802870e-02  1.1674862120257833e-02  1.0512873524992835e-02  1.1784561751852548e-02  9.6068155500161241e-03  1.0487447688991621e-02  1.0020530548520741e-02  9.0724599730876709e-03  1.9278148902918704e-02  1.9681421174081087e-02  2.0781609868580055e-02  1.8875809918988535e-02  1.7673970564078177e-02  1.7150147915287909e-02  1.8459894072890053e-02  2.0126897448339925e-02  1.7977070754282280e-02  1.3362373032200879e-02  1.4185758437527301e-02  1.5590924569169693e-02  1.2314897397773040e-02  5.1576711992467050e-03  4.2990902248697949e-03  5.5884119668183872e-03  8.0851241598999257e-03  7.3396213026004388e-03  7.0405270787748456e-03  4.5116694267501103e-03  3.3958421825590196e-03  3.9425364318161175e-03  2.9536541162818314e-03  5.0326953782247955e-03  5.3180843952261650e-03  2.4684276925498079e-03  3.0351098617432404e-03  2.9029315888949719e-03  5.2101077212227502e-03  8.3219384115948529e-03  8.8212196346589070e-03  7.1818712409585650e-03  6.6948668925737899e-03  4.8747593714389172e-03  7.5279161970656754e-03  7.9795504978214735e-03  7.1690363154578197e-03  7.0925674289449986e-03  6.8125821047116779e-03  7.8014473465598776e-03  8.6646797640544740e-03  8.2066423002050415e-03  8.8612323058523193e-03  5.2343602546533349e-02  5.2056396729778485e-02  5.1818301048581164e-02  5.2011054446152005e-02  5.1853364822937134e-02  5.1206253408121669e-02  5.1082283768725742e-02  5.1281861554684012e-02  5.1115509090105343e-02  5.1008946873966336e-02  5.0856219605534353e-02  5.0849278386410401e-02  5.5347581806460162e-02  5.5039504576890733e-02  5.5004183394148427e-02  5.5265057536913020e-02  5.5025954820295014e-02  5.4601898618084593e-02  5.4961904335709445e-02  5.4505207451948770e-02  5.4854470326693328e-02  5.4371334405326807e-02  5.5033249699426023e-02  5.2461791831784607e-02  5.2780836980639782e-02  5.2531145632873422e-02  5.3146710824186302e-02  5.2995845303120848e-02  5.0859700409000272e-02  5.1141797748383844e-02  3.8411096938698208e-02  3.8664226915554961e-02  3.9237401847740022e-02  3.8912076636632403e-02  3.9195349249290197e-02  4.4681808614001034e-02  4.6732031645673883e-02  4.6385880342800473e-02  4.5727998424379634e-02  4.4595590582253257e-02  4.6115079449017139e-02  3.0239593774116960e-02  2.7436122009823077e-02  2.8318046719459106e-02  1.2720736998438878e-02  3.4976991926865167e-02  3.5776389580197777e-02  3.7107379763626977e-02  2.4763995070821745e-02  2.1976226887766546e-02  2.2346301735290754e-02  2.3180856207937129e-02  2.3817689634956750e-02  4.7246222227824333e-02  4.7903566784402538e-02  4.7081641305171201e-02  4.8055469640671283e-02  4.8055982728144354e-02  4.7081297963606272e-02  4.7605224488496370e-02  3.8224849386405205e-02  4.0209719680197147e-02  3.8519942985343940e-02  4.1961360141909244e-02  4.1709220262490576e-02  4.0528200185713986e-02  4.5541274116201583e-02  4.6646526470411259e-02  4.6211117685504059e-02  4.5972248449369903e-02  4.4911482516925977e-02  4.4634950023558218e-02  4.5569608104125907e-02  4.2619595157408374e-02  4.3494554305192890e-02  4.1788436127918646e-02  3.9838233660504964e-02  4.0674369710476714e-02  3.8595801973482585e-02  4.3382428594730932e-02  4.3534351678141459e-02  4.2411365773577736e-02  3.9129579182865484e-02  4.1497546098050841e-02  1.6978636038124703e-02  1.6283173978258049e-02  1.6144627043995212e-02  2.6542853604486223e-02  2.7039696855981277e-02  2.8539690555572827e-02  2.5958402021019667e-02  9.5128880780356636e-03  8.7634864285814316e-03  8.8831988752357156e-03  9.4964010805372086e-03  1.0154228829165432e-02  1.0173373791223909e-02  2.3101087918564897e-02  2.5067170743072950e-02  2.3287317473109231e-02  2.1215963470980516e-02  2.2976808942484155e-02  1.7923325941690153e-02  1.8021249176700047e-02  1.6591119695954643e-02  2.1356489327602889e-02  1.9531480688276027e-02  1.3729812258078886e-02  1.3095378917639991e-02  1.2879211869906306e-02  1.3965094164332024e-02  1.4691923480946683e-02  1.4539359363009255e-02  1.0971334177171589e-02  1.1530630246566132e-02  1.1752630928005707e-02  1.4431692608511355e-02  1.4475593670587537e-02  1.4142423717630666e-02  1.5698449067303600e-02  1.6415013388210643e-02  4.8422594666362354e-02  4.8474259721620533e-02  4.8925701261060842e-02  4.8634589437833442e-02  4.7894502158104993e-02  4.9253422116552814e-02  4.9036198449906122e-02  4.9133901811834746e-02  4.9007263625889537e-02  4.9076982222720403e-02  4.8765736286713490e-02  4.8376195669255703e-02  4.8625557454311373e-02  4.8177448413599402e-02  4.8439723680152549e-02  4.6417510926554162e-02  4.5549880744010229e-02  4.2187981116464129e-02  4.0892712476307200e-02  4.1112716228742213e-02  4.8144104893372293e-02  4.8492510465912103e-02  4.7328944219249616e-02  4.8619667028599496e-02  2.6621106054336104e-02  5.1565039552110600e-02  5.1577513423834292e-02  5.1469313098547881e-02  5.1135220713073290e-02  5.1247924279365302e-02  5.1273516437117889e-02  5.1407874775404844e-02  5.2497441839840467e-02  5.2619662788118748e-02  5.2615523492940040e-02  5.2478870003324407e-02  5.2382838300771624e-02  5.2385305549717071e-02  5.2707149040468720e-02  5.2918472910697831e-02  5.2848816601097304e-02  5.2756702875806007e-02  5.3115386472358375e-02  5.3195866892460142e-02  5.3014067111198986e-02  5.2738631967912154e-02  3.8528958667939879e-02  3.8240668739619441e-02  3.6751942420632067e-02  4.2941515466701927e-02  4.1620402377955279e-02  4.3087248028752634e-02  4.3199997161120510e-02  4.4423789787754436e-02  4.1795102916823659e-02  4.5931975530711294e-02  4.4672558936434251e-02  4.5023865260937275e-02  2.3564508476674278e-02  2.3016394275545086e-02  2.4702902903031593e-02  3.4106982304479908e-02  3.5479307942056740e-02  3.6410573043551150e-02  4.8592922694595198e-02  4.8780809827660344e-02  4.8561448046657393e-02  4.8323589588066665e-02  4.8423294303617789e-02  4.8171216111926103e-02  4.8222409954633463e-02  4.8431133163240526e-02  4.8068977553606604e-02  4.7612906932580856e-02  4.7668157636213182e-02  4.7612122240104131e-02  4.7552920974407289e-02  4.7555126350302956e-02  4.7385024235196395e-02  4.7273020308436969e-02  4.7443488874780226e-02  4.7597394496585593e-02  4.7628918814468603e-02  4.7718806202672735e-02  4.7759361070820724e-02  4.7740058080919870e-02  4.7603746179954894e-02  4.7454102726500011e-02  4.7629815080333628e-02  5.0153889077393682e-02  4.9535589576976277e-02  4.9715134562772531e-02  4.9011984514300125e-02  4.1347055322048132e-02  4.1835722926377092e-02  4.0610358762559653e-02  4.0910372781843396e-02  4.2122912518047048e-02  4.8610680200994669e-02  4.6279582174939125e-02  4.5505528820966146e-02  4.3236459721049725e-02  4.2509727824528332e-02  4.1440449841666421e-02  4.2634804927564801e-02  4.1758145525605264e-02  4.2913728436005855e-02  4.3739882457213740e-02  4.4570168305113053e-02  4.4735280366313600e-02  4.3533239270599766e-02  4.4358076518398390e-02  3.2823132042715017e-02  3.2967214973126088e-02  3.1834559587372357e-02  4.3922758424454512e-03  4.9842030813190275e-03  3.2891601259383077e-03  3.3716223569427009e-02  3.3355520330923039e-02  3.5577181590876070e-02  3.7192286773888222e-02  2.1146459476406483e-02  2.1173361856275694e-02  2.0658617463103601e-02  2.1090835063004399e-02  2.1595948792893477e-02  2.2006166522484404e-02  2.3186228878967156e-02  2.2413543840716033e-02  2.2133173908851583e-02  2.2640941078184387e-02  2.3579756818382917e-02  2.2141422342267267e-02  2.1690574521402134e-02  2.2006676014218182e-02  2.2877168723947718e-02  2.3465411105356281e-02  1.8308053381863733e-02  1.8670840278252946e-02  1.8803229731074438e-02  1.8938671407252191e-02  1.9113883165785939e-02  1.9371453317871625e-02  1.9544615401480420e-02  1.9994212802801482e-02  1.9661522678814703e-02  2.0125129241279956e-02  2.0025321398987717e-02  2.0505997765775628e-02  1.8347090067108253e-02  1.8508133933853383e-02  1.3517438995267439e-02  1.4423191885119960e-02  1.3798741256823323e-02  1.2957596355340838e-02  1.7113306618745289e-02  1.6105736025463429e-02  1.6711513511860329e-02  1.2405920592572577e-02  1.3358210407529075e-02  1.2659767937922806e-02  1.4092094029664328e-02  1.3062179822736891e-02  1.5695352131563856e-02  1.5287175451085530e-02  1.4966008329221153e-02  1.5740308241694381e-02  1.7729086472773232e-02  1.4409095934601466e-02  1.5162330964904587e-02  2.4240489886926054e-02  2.3351156383504105e-02  2.3709775249078049e-02  2.4968932883532420e-02  2.4748164337853887e-02  3.9942274126152921e-03  5.8411093512853625e-03  2.6076588682727938e-02  2.6199767741877957e-02  2.5844630802117831e-02  2.9220816892791095e-02  2.9380553044985987e-02  2.8314473989250948e-02  3.3097700791356273e-02  3.2372350905945160e-02  3.2098953812085121e-02  2.3521237394959732e-02  2.6106503632294983e-02  2.5260131276895841e-02  2.6184462000893683e-02  3.2854593271780717e-02  3.3270748973359174e-02  3.1312448403708996e-02  3.0600345992691867e-02  3.1075807845677338e-02  5.4452820289180456e-02  5.4475425471215838e-02  5.4467952398983985e-02  5.4483956487259663e-02  5.4496040025029946e-02  5.3122781618214002e-02  5.2998640911466645e-02  5.2798083334136492e-02  5.2503674392804005e-02  5.3120756022703511e-02  5.3033174611915007e-02  5.3214510714601176e-02  5.4209597237153906e-02  5.4326572300584436e-02  5.4118923264636666e-02  5.4371704016407590e-02  5.4407409591309408e-02  5.4434278061198944e-02  5.4494241034829916e-02  5.4738306968044687e-02  5.4801931466515533e-02  5.4880876522864164e-02  5.4786455336845050e-02  5.4906398212910407e-02  5.4782201135418075e-02  5.4679580785203227e-02  5.5038431571814955e-02  5.4876814291664515e-02  5.4792681559084344e-02  5.4729501655605917e-02  5.3861405784186557e-02  5.4003401037841514e-02  5.4122411688112368e-02  5.4391658084191753e-02  5.4381825187541075e-02  5.3865240868882808e-02  4.8916829000611839e-02  4.8069387813189313e-02  4.8142632365937091e-02  4.8923819378747437e-02  5.5758136649518564e-02  5.6057378066988697e-02  5.5317512978422148e-02  5.5580969140419240e-02  5.5399578449849100e-02  5.5076168350200891e-02  5.5173521329667199e-02  5.4980993373809656e-02  5.4857001412016937e-02  5.4913236967407277e-02  5.4946686508551057e-02  5.4661536741610256e-02  5.5630216598614002e-02  5.5405327645409480e-02  5.5187745909858379e-02  5.5335335513000475e-02  5.4298745049446859e-02  5.4051496946776620e-02  5.4253197872783820e-02  5.4468762859726932e-02  5.4192150553603963e-02  5.3570706774660408e-02  5.3980105686774658e-02  5.3663847671095076e-02  5.4710796041885487e-02  5.4709315136015048e-02  5.4695028192483897e-02  5.4056780685284293e-02  5.3250789623308183e-02  5.4661745964176764e-02  5.4247152305074320e-02  5.4312305067043820e-02  5.4154372787273176e-02  5.2004237217867788e-02  5.1627099733628751e-02  5.2412306307885861e-02  5.2938698496656084e-02  5.2525430237784373e-02  5.2828112451313691e-02  2.6147457023466030e-02  2.526236880