<?xml version="1.0"?>
<VTKFile type="UnstructuredGrid"  version="0.1"  >
<UnstructuredGrid>
<Piece  NumberOfPoints="6340" NumberOfCells="12376">
<Points>
<DataArray  type="Float64"  NumberOfComponents="3"  format="ascii">-0.01942300051450729 0.02083100005984306 0  -0.02004100009799004 0.02147400006651878 0  -0.02027999982237816 0.02050000056624413 0  -0.02076799981296062 0.02120999991893768 0  -0.01966400071978569 0.01991499960422516 0  -0.01924999989569187 0.02170299924910069 0  -0.01969300024211407 0.0224239993840456 0  -0.01923700049519539 0.02324100024998188 0  -0.02010300010442734 0.02313899993896484 0  -0.01880200020968914 0.02242599986493587 0  -0.009131000377237797 0.01769700087606907 0  -0.009727999567985535 0.01860699988901615 0  -0.01006400026381016 0.01766999997198582 0  -0.01066699996590614 0.01861900091171265 0  -0.02432399988174438 0.07293300330638885 0  -0.02521399967372417 0.07326799631118774 0  -0.0253749992698431 0.07249999791383743 0  -0.02479100041091442 0.06660299748182297 0  -0.02539400011301041 0.06724599748849869 0  -0.02557400055229664 0.06637100130319595 0  -0.0262800008058548 0.06673000007867813 0  -0.01205000001937151 0.08494500070810318 0  -0.01289799995720387 0.08477099984884262 0  -0.01233899965882301 0.08417399972677231 0  -0.01868100091814995 0.07908199727535248 0  -0.01774599961936474 0.07930199801921844 0  -0.01823800057172775 0.07993599772453308 0  -0.01819399930536747 0.07844199985265732 0  -0.02162200026214123 0.02446899935603142 0  -0.0208129994571209 0.0246370006352663 0  -0.0211389996111393 0.02535500004887581 0  -0.02142699994146824 0.02608500048518181 0  -0.02196300029754639 0.02519599907100201 0  -0.0203230008482933 0.02552900090813637 0  -0.01998399943113327 0.02475200034677982 0  -0.0191430002450943 0.02485099993646145 0  -0.01949499920010567 0.02562999911606312 0  -0.02129199914634228 0.02373199909925461 0  -0.02217400074005127 0.02360700070858002 0  -0.02167000062763691 0.02252000011503696 0  -0.02123199962079525 0.02188399992883205 0  -0.02094200067222118 0.0229519996792078 0  -0.02048899978399277 0.02222000062465668 0  -0.01634100079536438 0.02211399935185909 0  -0.01683899946510792 0.0212399996817112 0  -0.01592000015079975 0.02120899967849255 0  -0.0171900000423193 0.02223899960517883 0  -0.01803899928927422 0.02224100008606911 0  -0.01756400056183338 0.02311999909579754 0  0.04152699932456017 0.07715799659490585 0  0.04117200151085854 0.0763389989733696 0  0.04245200008153915 0.0764319971203804 0  0.04470099881291389 0.08697699755430222 0  0.04548599943518639 0.08720800280570984 0  0.04438399896025658 0.08771699666976929 0  0.02664400078356266 0.0959170013666153 0  0.02682200074195862 0.09515699744224548 0  0.02772900089621544 0.09541500359773636 0  0.02564699947834015 0.09637799859046936 0  0.0258179996162653 0.09546100348234177 0  -0.006932000163942575 0.09301500022411346 0  -0.006053000222891569 0.09323800355195999 0  -0.006637999787926674 0.09381899982690811 0  -0.005748999770730734 0.09404700249433517 0  -0.01754800044000149 0.09214899688959122 0  -0.01785599999129772 0.09149699658155441 0  -0.01687699928879738 0.09175600111484528 0  -0.01844099909067154 0.09216099977493286 0  -0.014487000182271 0.09774699807167053 0  -0.0147529998794198 0.09845799952745438 0  -0.01523800007998943 0.09774500131607056 0  -0.01051099970936775 0.09153000265359879 0  -0.009688000194728374 0.09169399738311768 0  -0.01026799995452166 0.09228300303220749 0  -0.0113359997048974 0.09137099981307983 0  -0.01075499970465899 0.09078399837017059 0  -0.01157999970018864 0.09062500298023224 0  -0.0138950003311038 0.09293399751186371 0  -0.01443600002676249 0.09350000321865082 0  -0.01475400011986494 0.09275999665260315 0  -0.01274500042200089 0.09179200232028961 0  -0.01358999963849783 0.09163500368595123 0  -0.01300099957734346 0.09105599671602249 0  0.01191200036555529 0.09014599770307541 0  0.01295999996364117 0.09002400189638138 0  0.01235000044107437 0.09076400101184845 0  0.007801000028848648 0.07790099829435349 0  0.00825200043618679 0.07709900289773941 0  0.008848000317811966 0.07777900248765945 0  -0.0088900001719594 0.01678000018000603 0  -0.008129999972879887 0.01693899929523468 0  -0.009699000045657158 0.01671599969267845 0  -0.01054299995303154 0.01664900034666061 0  -0.01393999997526407 0.01680999994277954 0  -0.01413299981504679 0.01792700029909611 0  -0.01472599990665913 0.01705200038850307 0  -0.01338199991732836 0.01769199967384338 0  -0.01337100006639957 0.01874200068414211 0  -0.0126120001077652 0.01782199926674366 0  -0.0128370001912117 0.02169599942862988 0  -0.01331700012087822 0.02075099945068359 0  -0.01244699954986572 0.02074000053107738 0  -0.0120430001989007 0.01983699947595596 0  -0.01150199957191944 0.02066200040280819 0  -0.01293000020086765 0.01975299976766109 0  -0.0137090003117919 0.021764000877738 0  -0.01505399961024523 0.02105499990284443 0  -0.01545100007206202 0.02204000018537045 0  -0.01458400022238493 0.02190200053155422 0  -0.01015899982303381 0.0195509996265173 0  -0.01148600038141012 0.03078900091350079 0  -0.01198399998247623 0.02993299998342991 0  -0.0110719995573163 0.0298250000923872 0  -0.006457999814301729 0.02919499948620796 0  -0.006883000023663044 0.03018100000917912 0  -0.007381000090390444 0.0293320007622242 0  -0.00926200021058321 0.01955400034785271 0  -0.006984999869018793 0.01880400069057941 0  -0.007891999557614326 0.01871700026094913 0  -0.007203999906778336 0.01795499958097935 0  -0.007309000007808208 0.01710999943315983 0  -0.006399999838322401 0.01730000041425228 0  0.04664599895477295 0.08352600038051605 0  0.04737399891018867 0.08299499750137329 0  0.04733499884605408 0.08404599875211716 0  0.04630599915981293 0.08427300304174423 0  0.01454299967736006 0.05770700052380562 0  0.0155009999871254 0.05748099833726883 0  0.01510700024664402 0.05841799825429916 0  0.02644000016152859 0.04124600067734718 0  0.02682100050151348 0.04016000032424927 0  0.02730800025165081 0.04079699888825417 0  0.02876400016248226 0.04496899992227554 0  0.02959099970757961 0.04418199881911278 0  0.02998599968850613 0.04484700039029121 0  0.02881399914622307 0.04833399876952171 0  0.02789700031280518 0.04854800179600716 0  0.02833499945700169 0.04756699874997139 0  0.02784200012683868 0.04684599861502647 0  0.02881300076842308 0.04658300057053566 0  0.02738899923861027 0.0478149987757206 0  0.0269590001553297 0.04878399893641472 0  0.02685399912297726 0.04712399840354919 0  0.02627299912273884 0.04646699875593185 0  0.02586599998176098 0.04739100113511086 0  0.02527900040149689 0.04672599956393242 0  0.04409699887037277 0.08574499934911728 0  0.04301000013947487 0.08587300032377243 0  0.04363299906253815 0.08514399826526642 0  0.04256900027394295 0.08524399995803833 0  0.005572000052779913 0.02287999913096428 0  0.006273000035434961 0.02332000061869621 0  0.005621000193059444 0.02397900074720383 0  0.006378999911248684 0.02430799975991249 0  0.0248819999396801 0.04764999821782112 0  0.021161999553442 0.05024199932813644 0  0.02076699957251549 0.05117399990558624 0  0.02019100077450275 0.0504780001938343 0  0.02173599973320961 0.05093700066208839 0  0.02749600075185299 0.04951599985361099 0  0.01597700081765652 0.03381799906492233 0  0.01515499968081713 0.03371699899435043 0  0.01550200022757053 0.03278499841690063 0  0.01114699989557266 0.03941800072789192 0  0.01028599962592125 0.03944800049066544 0  0.01067500002682209 0.0385189987719059 0  0.009813000448048115 0.0385500006377697 0  0.009424000047147274 0.03947699815034866 0  0.009339000098407269 0.03765000030398369 0  0.01020199991762638 0.03762200102210045 0  0.0107580004259944 0.04034699872136116 0  -0.02617499977350235 0.06756599992513657 0  -0.02513400092720985 0.06806500256061554 0  -0.02607900090515614 0.06833100318908691 0  -0.02447899989783764 0.06749700009822845 0  -0.02412299998104572 0.06833700090646744 0  -0.02314300090074539 0.06860499829053879 0  -0.02360899932682514 0.069241002202034 0  -0.0225830003619194 0.06799499690532684 0  -0.02218200080096722 0.06885600090026855 0  -0.02268500067293644 0.06948599964380264 0  -0.02635000087320805 0.06586799770593643 0  -0.0178030002862215 0.08077999949455261 0  -0.01872799918055534 0.08056700229644775 0  -0.01768800057470798 0.08874599635601044 0  -0.01854399964213371 0.08860799670219421 0  -0.01797500066459179 0.08800599724054337 0  -0.01882800087332726 0.08787199854850769 0  -0.01826299913227558 0.08726000040769577 0  -0.01697400026023388 0.09106200188398361 0  -0.01615599915385246 0.09120699763298035 0  -0.01596999913454056 0.09191299974918365 0  -0.01319499965757132 0.08399000018835068 0  -0.01068400032818317 0.07871100306510925 0  -0.009752999991178513 0.07893099635839462 0  -0.01025899965316057 0.07955799996852875 0  -0.009879999794065952 0.08038700371980667 0  -0.009355000220239162 0.07976700365543365 0  -0.0144429998472333 0.07625800371170044 0  -0.01492100022733212 0.07536099851131439 0  -0.01397900003939867 0.07559400051832199 0  -0.01303599961102009 0.07582800090312958 0  -0.01350400038063526 0.0749329999089241 0  -0.017255999147892 0.07866600155830383 0  -0.01678399927914143 0.07801199704408646 0  -0.01772800087928772 0.07778099924325943 0  -0.01867399923503399 0.07755199819803238 0  -0.0232159998267889 0.07011699676513672 0  -0.02373900078237057 0.07230799645185471 0  -0.02333799935877323 0.0731780007481575 0  -0.02244099974632263 0.02418299950659275 0  -0.0227000005543232 0.02473999932408333 0  -0.02287499979138374 0.02528299950063229 0  -0.02306300029158592 0.02586800046265125 0  -0.02221900038421154 0.02595699951052666 0  -0.01962199993431568 0.02398999966681004 0  -0.0187740009278059 0.02407900057733059 0  -0.02047500014305115 0.02387199923396111 0  -0.0219149999320507 0.02304700016975403 0  -0.01781000010669231 0.01840399950742722 0  -0.01743699982762337 0.01916499994695187 0  -0.01848999969661236 0.01879999972879887 0  -0.0171119999140501 0.01799900084733963 0  -0.01836900040507317 0.02322600036859512 0  -0.016719000414
[...]
<PointData  Scalars="pressure"> 
<DataArray  type="Float64"  Name="pressure"  format="ascii">3.3686100008189716e-02  3.3811742574135321e-02  3.3710205335047885e-02  3.3825751940599780e-02  3.3603535911082290e-02  3.3778425390059340e-02  3.3910893295589162e-02  3.4001339415781935e-02  3.4044531513414543e-02  3.3842483717212719e-02  3.3054555054953236e-02  3.3071615472676057e-02  3.3063076501340688e-02  3.3061704163640224e-02  2.4646717995026497e-02  2.4522992186972702e-02  2.4873873038540807e-02  2.7497816064043994e-02  2.7348155671642799e-02  2.7458154182295965e-02  2.7414802196291110e-02  1.7417880768441321e-02  1.8000630731598764e-02  1.7429859014873279e-02  2.0646623287296516e-02  2.0178704382643256e-02  2.0405196698037843e-02  2.0447618065066453e-02  3.4315151095901504e-02  3.4309166837123872e-02  3.4424887236981769e-02  3.4532669044014114e-02  3.4419204267125705e-02  3.4427972267799124e-02  3.4292428867846794e-02  3.4277819440889257e-02  3.4429842781925790e-02  3.4200471268784546e-02  3.4204730469800333e-02  3.4043933154555575e-02  3.3941549565225708e-02  3.4073514817783798e-02  3.3942980682426072e-02  3.3628407699885995e-02  3.3525294428189877e-02  3.3462216853161676e-02  3.3700258001738544e-02  3.3758418836179610e-02  3.3878064255418686e-02  1.7536078369380800e-02  1.5807957956309494e-02  1.7765442183906188e-02  3.1908191996352565e-02  3.2164707309055678e-02  3.2999750907586861e-02  3.6016847692636605e-02  3.5116577625372701e-02  3.7058534180191026e-02  3.4926760047733166e-02  3.3889377384692325e-02  1.7478621689232414e-02  1.7144451548117029e-02  1.7844868901681757e-02  1.7590065130017700e-02  2.0886757801417091e-02  2.0962167988056279e-02  2.0843875794281354e-02  2.0865585987579961e-02  2.0845069669206243e-02  2.0755969718262955e-02  2.0744622562829475e-02  1.8625713135476868e-02  1.8284573170663784e-02  1.8788208770224968e-02  1.8974683688860742e-02  1.8484142477737449e-02  1.8866298557068673e-02  2.0228917989717026e-02  2.0453937794084189e-02  2.0437807215869082e-02  1.9666940300452525e-02  1.9935716264622056e-02  1.9603160591420914e-02  5.0092405592191934e-03  5.6920281882213118e-03  6.1561126916225492e-03  6.7891692440206312e-03  7.3103370223810971e-03  7.0734916152133363e-03  3.3103969985062744e-02  3.3142300306753240e-02  3.3096446734018702e-02  3.3063047039674456e-02  3.3099589777836627e-02  3.3116570677974327e-02  3.3126712923950904e-02  3.3068113885222253e-02  3.3112479240830488e-02  3.3087415342965089e-02  3.3454528521904579e-02  3.3299301952799593e-02  3.3288144265929839e-02  3.3165759104367774e-02  3.3280653395845308e-02  3.3171015990761804e-02  3.3471771211652741e-02  3.3395420700703837e-02  3.3571828197858450e-02  3.3515734902427478e-02  3.3139504236967876e-02  3.6520782471753409e-02  3.6130368583670087e-02  3.6168713184258364e-02  3.5963869415739112e-02  3.6339184105166518e-02  3.6045100255896585e-02  3.3165277231713031e-02  3.3118608421592928e-02  3.3119297995722274e-02  3.3043363177824747e-02  3.3170778971647857e-02  3.3114109257275454e-02  2.8094591647427770e-02  2.7862883550692257e-02  2.8700149353066081e-02  2.8728560463049242e-02  1.3512293422875379e-02  1.5048644371951785e-02  1.3635046245823207e-02  3.7715344255594897e-02  3.7436688612865476e-02  3.7683921869220587e-02  3.8999969501923054e-02  3.8777282374379163e-02  3.9112029288455689e-02  3.9028275237054683e-02  3.8491713877009066e-02  3.8863962923250034e-02  3.8663567898525653e-02  3.9084541545725569e-02  3.8306135633641498e-02  3.7792157833679112e-02  3.8079629152054720e-02  3.7802312550698047e-02  3.7346817628037265e-02  3.7076342166028647e-02  3.0171433292692666e-02  3.0219016470169471e-02  2.9279246230631530e-02  2.9217568481342611e-02  3.5751107933699400e-02  3.5830039156907696e-02  3.5874318266882720e-02  3.5952663494595999e-02  3.6470155883027017e-02  3.0693010235076902e-02  2.9374675512595805e-02  2.9270684250352407e-02  3.0852043330403783e-02  3.7971352882595767e-02  3.5779591355798453e-02  3.5807956501936494e-02  3.5884950910074001e-02  3.1790101026231171e-02  3.1311445704001149e-02  3.2533087131911095e-02  3.2121504393278280e-02  3.0808634006962748e-02  3.2903638847800183e-02  3.3239202909139842e-02  3.0470549813515827e-02  2.7292771018367377e-02  2.7169673936010951e-02  2.7078401837827545e-02  2.7196048770167954e-02  2.6780011043342888e-02  2.6375548780418180e-02  2.6203127152423268e-02  2.6476808565635754e-02  2.5911473828211941e-02  2.5794323281181173e-02  2.7843339471462454e-02  2.0206149005967691e-02  2.0605144797622241e-02  2.0793535223490801e-02  2.1003324124492885e-02  2.0823854504963941e-02  2.1025142084894984e-02  2.0850221725625818e-02  2.0826078019514742e-02  2.0624670038756985e-02  2.0626823338501507e-02  1.8001265237028219e-02  1.4756104668453091e-02  1.3989876869884833e-02  1.4595528088687630e-02  1.4418410829247186e-02  1.3797276159062975e-02  1.7786957763685420e-02  1.8193893014909583e-02  1.7257542240632560e-02  1.6396215740328464e-02  1.6708524746485057e-02  1.9921204698765328e-02  1.9640237533251722e-02  2.0240950904444568e-02  2.0800650488433568e-02  2.5664324947867117e-02  2.4739522020776172e-02  2.4210562635226057e-02  3.4290669213532847e-02  3.4363085347208167e-02  3.4430768071515204e-02  3.4504186777140650e-02  3.4519229757006512e-02  3.4147956759705916e-02  3.4120360374368414e-02  3.4177799840700532e-02  3.4123349912753655e-02  3.3358665036453648e-02  3.3370214490710870e-02  3.3428067200274532e-02  3.3294865533549281e-02  3.3944197855678163e-02  3.3828517597118808e-02  3.3992114458699096e-02  3.4029431089277737e-02  3.6448006740461746e-02  3.6842267168739701e-02  3.6733619028864697e-02  3.3448869369824968e-02  3.3908875408263352e-02  3.4186726125627315e-02  3.4157885117909591e-02  3.3948872665089280e-02  3.3687757570139087e-02  3.4482214170835135e-02  3.4787454978640511e-02  3.4768510983714834e-02  2.9969862288833055e-02  3.0159335068932463e-02  3.0776950254769633e-02  2.6464223597625396e-02  2.7554472966391221e-02  2.7350251399753014e-02  2.0739077057103289e-02  2.0700687936852563e-02  1.9559219254720223e-02  1.6353746521386589e-02  3.4760234109373032e-02  3.5734578450250527e-02  3.4186734156585158e-02  3.3268058945191997e-02  3.4180788654964066e-02  3.3599625148766306e-02  2.9134093442936947e-02  2.8204149633500417e-02  2.8069183046344905e-02  2.7170987841474717e-02  3.1106398142048325e-02  3.2334244131036596e-02  3.2122296983003423e-02  3.2572784600571135e-02  3.2386905736876546e-02  3.1323180987594824e-02  3.1164929251934474e-02  3.2332435013221687e-02  3.1009626630689263e-02  3.0221217330878652e-02  3.1930057847509741e-02  3.3369952531464846e-02  3.1865271190258372e-02  3.3670219921008403e-02  1.8146083389315497e-02  1.8682873865050714e-02  1.8478651369648658e-02  1.7910376890173382e-02  1.6745049875043397e-02  1.6498283511132236e-02  1.5782531175388838e-02  1.5449666132042628e-02  1.8243941502689792e-02  2.0838125172030597e-02  2.0666077249699211e-02  2.0704363436141057e-02  2.0802915744778071e-02  2.0761225444781019e-02  2.0821430342895936e-02  2.0722459522717389e-02  2.0806189579363067e-02  2.0640482577648625e-02  2.0549376301482666e-02  1.4417689646378245e-02  1.4221966508107465e-02  1.3509442035958451e-02  1.7042645520112726e-02  1.7705678677933573e-02  1.7619673869990471e-02  1.9898644338659281e-02  1.8098511693883410e-02  1.8960899930823144e-02  1.9151424816265940e-02  2.0572941946710499e-02  2.0503206442748161e-02  2.0372771589793698e-02  2.0127484678723134e-02  2.0223915372646614e-02  1.9091355248052840e-02  1.9391213929040571e-02  1.9488722451139657e-02  1.9297968692723828e-02  1.9828515565833378e-02  1.9605592012587610e-02  2.0033429679675488e-02  2.0826796149055866e-02  2.0612620839680223e-02  2.0208731989648534e-02  1.9741066000628228e-02  2.0212453966653325e-02  1.9802146983354765e-02  1.9496582469815296e-02  1.8980018231454662e-02  1.9944105599031797e-02  1.9438548080771396e-02  1.9953572474377370e-02  2.0392101233288877e-02  2.2924119787503000e-02  2.2752509236787712e-02  2.2745231865796144e-02  2.3082584931629964e-02  2.2918879242041324e-02  2.3093766568200502e-02  2.3189503971084796e-02  2.3256762786756480e-02  2.3040484212142345e-02  2.2943709754191573e-02  2.5497626673200220e-02  2.5587716603733473e-02  2.6741191654319110e-02  2.4465996653559287e-02  2.4375783688277093e-02  2.1843405247878502e-02  2.2068887451814165e-02  2.1937310577988620e-02  2.0431446847776025e-02  1.9958869198938696e-02  1.9679058350242105e-02  1.8598063921165364e-02  1.8145239794655078e-02  1.9139679112298719e-02  9.2072869238239707e-03  1.0215149064571438e-02  8.9153928784113344e-03  7.9358112961163477e-03  7.6732314318781435e-03  8.7486834120940292e-03  7.8656595217836550e-03  8.0174833256707184e-03  8.4243600478007795e-03  7.5032828196728157e-03  8.2686900220678532e-03  1.1328748498562885e-02  1.1431015783683392e-02  1.0948454219694322e-02  1.6646966744834343e-02  1.6610171525729103e-02  1.8264757243556702e-02  2.8111410609356666e-02  2.6535478863662306e-02  2.8203447206170539e-02  2.6609350687276732e-02  2.7760392150865343e-02  2.6327792902976217e-02  2.6395008612546320e-02  3.6911144804404460e-02  3.7215580362789123e-02  3.7270970420421504e-02  5.0443612251039570e-03  5.2087820173329462e-03  6.2828913561643641e-03  4.0250940679337245e-03  4.8834966595721271e-03  4.0880734478179158e-03  3.6245570854678728e-03  4.1563523761320095e-03  1.0500233619422865e-02  1.1313102106375775e-02  1.0881793199085412e-02  1.0068937108431115e-02  1.7335836889224670e-02  1.7267634102644348e-02  1.8550917991986476e-02  1.7434435574639272e-02  1.6153787282007278e-02  1.6051318050732108e-02  1.7442427576018944e-02  1.9101825940667692e-02  1.7342967905532261e-02  1.4083246440885374e-02  1.4799015081105062e-02  1.6187554429304266e-02  1.2928753365451129e-02  7.4800464761486732e-03  6.4013196582628600e-03  7.7292995870953847e-03  1.2199456556524060e-02  1.1176532484359500e-02  1.0610890500902751e-02  5.9925295795186344e-03  4.9326979061250775e-03  5.3850302092798633e-03  4.3899806264984555e-03  6.5143301711401459e-03  6.7484406549136837e-03  4.0016641983595010e-03  4.6424497121137984e-03  4.6508911571159078e-03  6.9076448482493363e-03  9.7865797150642718e-03  1.0487346429617513e-02  8.8987859520636980e-03  8.2719465047278590e-03  6.8351639570759341e-03  6.7781732208254432e-03  7.4103844990161850e-03  6.5043463954094598e-03  6.1771415496756771e-03  5.9417243484396996e-03  7.6260658318582468e-03  7.8250063534276056e-03  7.3123350330669065e-03  8.0399464388998670e-03  3.3316511647174335e-02  3.3220002841673743e-02  3.3166413408683780e-02  3.3205960039829341e-02  3.3197110004307355e-02  3.3061593341220247e-02  3.3082705080461038e-02  3.3092437822798672e-02  3.3053116816099126e-02  3.3009900730623883e-02  3.3018739840626150e-02  3.3018102560559051e-02  3.6055935673312514e-02  3.5737733822867587e-02  3.5684182113416528e-02  3.5967290698930870e-02  3.5797354836968311e-02  3.5436482192588215e-02  3.5795056992397156e-02  3.5432503283042732e-02  3.5775173332834705e-02  3.5418824959576864e-02  3.6236186281642407e-02  3.4483670415696679e-02  3.4654457866454415e-02  3.4418860334103685e-02  3.4849434887446233e-02  3.4886221454061214e-02  3.3080723508336338e-02  3.3212255325468884e-02  2.7982924730423804e-02  2.7937796017909418e-02  2.7840523146530544e-02  2.7882195942451747e-02  2.7835145614339998e-02  2.6145087171025500e-02  2.7966906480887097e-02  2.7405265165826396e-02  2.8337894170795404e-02  2.7431225427213660e-02  2.8844926640236756e-02  2.8059826435876699e-02  2.5931338356310136e-02  2.6633817174694131e-02  1.4988344636531965e-02  3.1273204824210907e-02  3.1621801300621560e-02  3.2618870717175154e-02  2.7298894914480214e-02  2.4852586814694683e-02  2.5430605557651767e-02  2.5915135183398944e-02  2.6451007690240898e-02  3.9236379492785585e-02  3.9752305816843504e-02  3.9137361410015788e-02  3.9814253996708529e-02  3.9707901426694843e-02  3.9009406204490352e-02  3.9245680692599143e-02  3.2700646437782116e-02  3.4235411642435543e-02  3.3192557824437079e-02  3.5508310914607134e-02  3.5145792535592489e-02  3.4672574295253840e-02  3.7316985676699305e-02  3.8107270009310308e-02  3.8047233865352761e-02  3.8181482180932175e-02  3.7496445254844933e-02  3.7141329634139832e-02  3.7722520054080208e-02  3.4957756064996369e-02  3.5905079554457278e-02  3.4478670908771866e-02  3.2918315214113918e-02  3.3824159351761959e-02  3.2169738860733800e-02  3.6556709871041385e-02  3.6699282539160001e-02  3.6038568672402488e-02  3.3952191847046349e-02  3.5618260170380805e-02  1.1904032711051140e-02  1.1548977277622410e-02  1.1186334987721005e-02  1.9779943075199591e-02  1.9913403087323832e-02  2.1480714523800598e-02  1.8307498941751231e-02  5.3187746214700439e-03  5.4023532945692808e-03  4.7617829560267812e-03  5.9972847051506656e-03  5.8634996136758127e-03  5.2117654032585552e-03  1.1019314446837090e-02  1.1782888695887391e-02  1.1162625718542787e-02  1.0324457491249488e-02  1.0994598125557142e-02  8.8900328067304940e-03  8.8414231187283997e-03  7.9842732780231393e-03  1.0361491339798686e-02  9.6134374252142968e-03  8.2789882779166178e-03  8.1640193753362705e-03  7.5526266413610994e-03  8.8320100361989860e-03  9.0859403920257702e-03  8.5836190363916230e-03  7.0949247342123947e-03  6.9616619404731343e-03  7.6286245884622204e-03  1.4037656021267898e-02  1.4266408465666337e-02  1.3925659081027631e-02  1.1421516723855857e-02  1.1951377449456197e-02  3.7944822343447822e-02  3.9415548929817579e-02  3.9573184224412229e-02  3.9733058557652801e-02  3.9156879651937149e-02  3.9228567563699246e-02  3.9440971010227734e-02  3.9353588227528935e-02  3.8529986641259492e-02  3.8877007354804961e-02  3.9273189597343369e-02  3.7960964315689759e-02  3.8238619704014591e-02  3.7811557686798669e-02  3.8126849328356582e-02  3.6219793921244303e-02  3.5451007061403195e-02  3.1642887596780453e-02  3.0460475750243753e-02  3.0441970547487485e-02  3.7711555796588553e-02  3.8026917648826701e-02  3.7590179168406644e-02  3.8412095564309905e-02  2.8331838931107429e-02  3.6054663992174954e-02  3.5948134705273721e-02  3.5982810332212699e-02  3.6083841015386128e-02  3.6157595047583695e-02  3.6072516581726652e-02  3.6080897253677163e-02  3.5758855679104494e-02  3.5847186285552786e-02  3.5684297855127167e-02  3.5583205407133167e-02  3.5669268867069760e-02  3.5823478833700871e-02  3.5377715179595176e-02  3.5505752006550331e-02  3.5274387141780487e-02  3.5596773875583555e-02  3.5421306456181710e-02  3.5649109778442045e-02  3.5184955950872267e-02  3.5037212324952396e-02  2.9493289440308042e-02  2.9626260473835899e-02  2.8037840473740382e-02  3.3663545276340703e-02  3.2263731155697986e-02  3.3484571084170571e-02  3.3301383880160379e-02  3.4525853759677066e-02  3.2131436612696060e-02  3.7276582108079943e-02  3.6386671600109263e-02  3.6301844503809029e-02  1.9359416581343096e-02  1.8554633474999437e-02  2.0051738388573992e-02  2.8478041731825554e-02  2.9326301208244119e-02  3.0363228248126400e-02  3.5933121416984355e-02  3.5948306647051273e-02  3.5890182254742067e-02  3.5870433621943018e-02  3.5895123920271707e-02  3.5841439367183703e-02  3.5645111982923347e-02  3.5829999580419325e-02  3.5658015120441498e-02  3.6386403568143405e-02  3.6553761724534596e-02  3.6503515078395221e-02  3.6328894124934757e-02  3.6223508256291614e-02  3.6151900617764493e-02  3.5962935780673708e-02  3.6060010752287285e-02  3.5924867472590480e-02  3.5916072089973640e-02  3.5900009251003721e-02  3.5823547584170549e-02  3.5889492471919318e-02  3.5902017377614545e-02  3.5828668547915464e-02  3.5811449228930405e-02  3.5078370155117805e-02  3.4611478599506064e-02  3.4442116635763187e-02  3.3810986011430663e-02  2.8467941881484764e-02  2.9361729663514829e-02  2.7983603703861819e-02  2.7588269203732439e-02  2.9029467751031254e-02  3.5842026398410859e-02  3.2926427717232268e-02  3.2252582164835689e-02  3.0379934768930781e-02  2.9821602919287347e-02  2.7398017495322745e-02  2.8913030635688185e-02  2.8205696236866602e-02  2.9638579733522886e-02  3.0320313670851050e-02  3.1037452338291339e-02  3.1601915162883541e-02  2.9672665095786400e-02  2.9923658507360659e-02  2.3853782476103647e-02  2.3725317947489576e-02  2.2918632364466028e-02  2.3536791742202641e-03  1.9313415959048078e-03  1.2893741154118427e-03  2.5186046800208372e-02  2.5071741383269779e-02  2.6524021839097554e-02  2.7290397835899313e-02  2.0142200908938868e-02  1.9828033206793626e-02  1.9799827403170406e-02  2.0415373049502757e-02  2.0441779717020409e-02  1.7443385952687095e-02  1.8246894801936989e-02  2.1182306338693987e-02  2.1134553290364011e-02  2.1131477979449080e-02  1.9940190130751059e-02  2.0483723371086483e-02  2.0180444209506942e-02  2.0700700209564410e-02  2.0059538245372530e-02  2.0451564802397307e-02  2.0825607983180311e-02  2.0946237328901180e-02  2.0874625261478614e-02  2.0960030293546997e-02  2.0996481484037273e-02  2.0977475576480158e-02  2.1008347443217890e-02  2.1022484113521672e-02  2.0952541385627292e-02  2.1022537980890696e-02  2.0632268563066367e-02  2.0647131184066053e-02  1.8013924805604604e-02  2.0945088804830217e-02  1.3186193552015644e-02  1.3959838848996356e-02  1.3149307711795379e-02  1.2403777580197322e-02  1.5034902656425207e-02  1.4265240108674616e-02  1.4911822646419989e-02  1.1359348499357203e-02  1.2068716177724315e-02  1.1504026688002659e-02  1.2730770560384259e-02  1.1967309795710514e-02  1.4114705057747891e-02  1.4726023524848692e-02  1.4760564279597934e-02  1.5451479451104080e-02  1.6776790898918072e-02  1.2875004099795938e-02  1.3158368889067178e-02  1.8981913543597073e-02  1.8646733058130641e-02  1.7693502037339819e-02  1.8610328186287703e-02  1.8135692181379670e-02  1.0888612385871257e-03  1.9438212621565309e-03  1.9135403075441731e-02  1.9550929194788999e-02  1.8616295714187929e-02  2.1981876025897597e-02  2.1846030358133373e-02  2.1238911754915379e-02  2.4627553749029543e-02  2.3967199445674759e-02  2.3964408697645004e-02  1.9331581772411427e-02  2.0613086145329088e-02  2.0005044935522409e-02  2.0397661807762639e-02  2.5011287035800307e-02  2.5225695909123949e-02  2.4028967197491254e-02  2.3720630617983584e-02  2.3923332267184849e-02  3.4611459684261936e-02  3.4581517528200441e-02  3.4686867033766521e-02  3.4715764532264305e-02  3.4641547804881365e-02  3.3577686180932424e-02  3.3507707335079143e-02  3.3454194274338621e-02  3.3348362055419793e-02  3.3606136516928196e-02  3.3548211161665148e-02  3.3769182801282722e-02  3.5075692785005982e-02  3.5216509712552975e-02  3.5135277235418184e-02  3.5119408239656778e-02  3.5023823082824132e-02  3.4933570679293924e-02  3.5015475716078263e-02  3.5205650533220251e-02  3.5312053545096055e-02  3.5453083032218606e-02  3.5321056914111262e-02  3.5557558625800172e-02  3.5394737900697255e-02  3.5105779796851297e-02  3.5724371957749683e-02  3.5615353110012946e-02  3.5628649778270328e-02  3.5431657414893000e-02  3.5009251117279885e-02  3.4995723251437960e-02  3.4966920466275420e-02  3.4569031366734310e-02  3.4589053956662390e-02  3.4213999128878930e-02  3.1803520749864748e-02  3.1065472262035248e-02  3.1153574659290473e-02  3.1814492740688899e-02  3.6587779053646657e-02  3.6956891131117019e-02  3.6062216980694471e-02  3.6411736210496010e-02  3.6221337441992976e-02  3.5729511262728400e-02  3.5854669500909479e-02  3.5848008554270255e-02  3.5832621628717837e-02  3.6032305820748400e-02  3.6215769946499235e-02  3.5916822553472255e-02  3.6550659546232135e-02  3.6317397878334268e-02  3.6080713084349736e-02  3.6352264849536818e-02  3.4658306279313836e-02  3.4430909526231776e-02  3.4680505473350887e-02  3.4958002457290971e-02  3.4694038902863017e-02  3.4433831061520648e-02  3.4734125128733410e-02  3.4422450792109358e-02  3.5368890368800893e-02  3.5317280680924754e-02  3.5404260224703082e-02  3.4721825455927377e-02  3.4141930069319329e-02  3.5425705343481752e-02  3.5086839918665118e-02  3.5069482570500965e-02  3.5097477384536765e-02  3.3459746419902806e-02  3.3291443663751752e-02  3.3659408471112727e-02  3.4227895101527905e-02  3.4000687813657442e-02  3.4271009050589184e-02  2.9506162123145940e-02  2.925551758