<?xml version="1.0"?>
<VTKFile type="UnstructuredGrid"  version="0.1"  >
<UnstructuredGrid>
<Piece  NumberOfPoints="6340" NumberOfCells="12376">
<Points>
<DataArray  type="Float64"  NumberOfComponents="3"  format="ascii">-0.01934999972581863 0.02067000046372414 0  -0.02001399919390678 0.02132200077176094 0  -0.02023999951779842 0.02033999934792519 0  -0.02078500017523766 0.02107400074601173 0  -0.01958199962973595 0.01975099928677082 0  -0.01918799988925457 0.02154500037431717 0  -0.01967200078070164 0.02227699942886829 0  -0.019208999350667 0.02309300005435944 0  -0.02013299986720085 0.0230139996856451 0  -0.01873300038278103 0.02227099984884262 0  -0.008785000070929527 0.0175429992377758 0  -0.009405000135302544 0.01846200041472912 0  -0.009738000109791756 0.01752300001680851 0  -0.01036300044506788 0.01848199963569641 0  -0.0256120003759861 0.07565999776124954 0  -0.02655900083482265 0.07610300183296204 0  -0.026698999106884 0.075314000248909 0  -0.02609400078654289 0.06902900338172913 0  -0.02670099958777428 0.06977400183677673 0  -0.02690999954938889 0.06886500120162964 0  -0.02762999944388866 0.06932000070810318 0  -0.01316099986433983 0.08737599849700928 0  -0.01409300044178963 0.08724399656057358 0  -0.01350300014019012 0.08652500063180923 0  -0.02009399980306625 0.08156000077724457 0  -0.01912499964237213 0.08170299977064133 0  -0.01969200000166893 0.08243300020694733 0  -0.01953100040555 0.08082599937915802 0  -0.02181600034236908 0.02444799989461899 0  -0.02094200067222118 0.02456199936568737 0  -0.02132599987089634 0.0253320001065731 0  -0.02166800014674664 0.02611000090837479 0  -0.02221599966287613 0.02522799931466579 0  -0.0204440001398325 0.02545000053942204 0  -0.02005599997937679 0.02464799955487251 0  -0.01915900036692619 0.02472499944269657 0  -0.01955999992787838 0.02552499994635582 0  -0.02142699994146824 0.0236590001732111 0  -0.02238300070166588 0.02359499968588352 0  -0.02178999967873096 0.02243000082671642 0  -0.0213019996881485 0.0217719990760088 0  -0.02102399989962578 0.02284800074994564 0  -0.02051799930632114 0.02209199965000153 0  -0.01616499945521355 0.02196200005710125 0  -0.01666600070893764 0.02108299918472767 0  -0.01572000049054623 0.0210609994828701 0  -0.01704199984669685 0.02207900024950504 0  -0.01793099939823151 0.02208299934864044 0  -0.01745199970901012 0.0229640007019043 0  0.04289700090885162 0.08125700056552887 0  0.04252000153064728 0.08039499819278717 0  0.04384699836373329 0.08062899857759476 0  0.04591099917888641 0.09219799935817719 0  0.04672100022435188 0.09253600239753723 0  0.04561600089073181 0.09302300214767456 0  0.02782299928367138 0.1008730009198189 0  0.02797600068151951 0.1000119969248772 0  0.02891100011765957 0.1003929972648621 0  0.02682299911975861 0.1013140007853508 0  0.0269629992544651 0.100271001458168 0  -0.006533999927341938 0.0964210033416748 0  -0.005537000019103289 0.09654700011014938 0  -0.006128000095486641 0.09727499634027481 0  -0.005125999916344881 0.09740000218153 0  -0.01873599924147129 0.09612999856472015 0  -0.01912800036370754 0.09538199752569199 0  -0.01802299916744232 0.09562700241804123 0  -0.01972500048577785 0.09619700163602829 0  -0.01458700001239777 0.1025850027799606 0  -0.01479899976402521 0.1034329980611801 0  -0.01545100007206202 0.1026350036263466 0  -0.01082499977201223 0.09503699839115143 0  -0.009855999611318111 0.09517499804496765 0  -0.01044700015336275 0.09590400010347366 0  -0.01178899966180325 0.09489099681377411 0  -0.01119900029152632 0.09416399896144867 0  -0.01216300018131733 0.09401900321245193 0  -0.01452500000596046 0.0968799963593483 0  -0.0150739997625351 0.09757900238037109 0  -0.01552500016987324 0.09671600162982941 0  -0.01335099991410971 0.09546499699354172 0  -0.01432999968528748 0.09532000124454498 0  -0.01372599974274635 0.09460200369358063 0  0.01257099956274033 0.09287799894809723 0  0.01363600045442581 0.09283299744129181 0  0.0130409998819232 0.09363000094890594 0  0.007911999709904194 0.07837899774312973 0  0.008395000360906124 0.07753799855709076 0  0.008976000361144543 0.07833299785852432 0  -0.008530000224709511 0.01662000082433224 0  -0.00774300005286932 0.01677599921822548 0  -0.009355000220239162 0.01656199991703033 0  -0.010215999558568 0.01650200039148331 0  -0.01365999970585108 0.01668000034987926 0  -0.01386599987745285 0.01779500022530556 0  -0.01445899996906519 0.01691599935293198 0  -0.0131029998883605 0.01756300032138824 0  -0.0131010003387928 0.01861600019037724 0  -0.01232500001788139 0.01768999919295311 0  -0.01258500013500452 0.02157399989664555 0  -0.01306299958378077 0.02062500081956387 0  -0.01218200009316206 0.02061700075864792 0  -0.01176599971950054 0.01970900036394596 0  -0.01122500002384186 0.02053599990904331 0  -0.01266300026327372 0.01962899975478649 0  -0.0134699996560812 0.02163399942219257 0  -0.01482800021767616 0.02091499976813793 0  -0.01524899993091822 0.0218959990888834 0  -0.01435799989849329 0.02176499925553799 0  -0.009855000302195549 0.01941400021314621 0  -0.01129600033164024 0.03067499957978725 0  -0.01179399993270636 0.02981499955058098 0  -0.0108679998666048 0.02971399948000908 0  -0.006178999785333872 0.02907099947333336 0  -0.006622999906539917 0.03006399981677532 0  -0.007122000213712454 0.0292150005698204 0  -0.008937999606132507 0.01940900087356567 0  -0.006579999811947346 0.01864299923181534 0  -0.007521999999880791 0.01855899952352047 0  -0.006794999819248915 0.01779099926352501 0  -0.006891999859362841 0.01694400049746037 0  -0.005950000137090683 0.01713000051677227 0  0.04785500094294548 0.08844699710607529 0  0.04867300018668175 0.08795700222253799 0  0.04851900041103363 0.0890749990940094 0  0.04744699969887733 0.08922500163316727 0  0.01574699953198433 0.05830100178718567 0  0.0167820006608963 0.05815400183200836 0  0.01633699983358383 0.05907100066542625 0  0.02891200035810471 0.04264099895954132 0  0.02934700064361095 0.04156700149178505 0  0.02985700033605099 0.04227200150489807 0  0.03127099946141243 0.04677100107073784 0  0.03217000141739845 0.04605999961495399 0  0.03255600109696388 0.0468129999935627 0  0.03117099963128567 0.05031700059771538 0  0.03021200001239777 0.05040900036692619 0  0.03071199916303158 0.04944000020623207 0  0.03022499941289425 0.04861399903893471 0  0.03125400096178055 0.04847300052642822 0  0.02971000038087368 0.04956899955868721 0  0.0292189996689558 0.05052600055932999 0  0.02917899936437607 0.0487699992954731 0  0.0285899993032217 0.04801100119948387 0  0.02812900021672249 0.04891899973154068 0  0.02752700075507164 0.04815899953246117 0  0.04524800181388855 0.09072300046682358 0  0.04414299875497818 0.09077200293540955 0  0.04475099965929985 0.08998599648475647 0  0.04366999864578247 0.09000500291585922 0  0.006810999941080809 0.02297100052237511 0  0.007565999869257212 0.02343500033020973 0  0.006841999944299459 0.02407100051641464 0  0.007660999894142151 0.02442499995231628 0  0.02707500010728836 0.04906899854540825 0  0.02303400076925755 0.05131800100207329 0  0.02258799970149994 0.05223299935460091 0  0.02198399975895882 0.05145800113677979 0  0.02363199926912785 0.05209600180387497 0  0.02974599972367287 0.05137199908494949 0  0.01784300059080124 0.03437300026416779 0  0.0169610008597374 0.0342239998281002 0  0.01735500060021877 0.03330999985337257 0  0.01251900009810925 0.03972499817609787 0  0.01158600021153688 0.03971299901604652 0  0.01202700007706881 0.03880300000309944 0  0.01109299995005131 0.03879199922084808 0  0.01065200008451939 0.03970099985599518 0  0.01059999968856573 0.03787000104784966 0  0.01153500005602837 0.03788299858570099 0  0.01207899954169989 0.04063599929213524 0  -0.02750499919056892 0.07019300013780594 0  -0.02641499973833561 0.07061299681663513 0  -0.0273899994790554 0.07099200040102005 0  -0.02574600093066692 0.06994500011205673 0  -0.02535999938845634 0.07079499959945679 0  -0.024337999522686 0.07097700238227844 0  -0.02480999939143658 0.07169900089502335 0  -0.02376900054514408 0.07027400285005569 0  -0.02333600074052811 0.07114300131797791 0  -0.023845000192523 0.07186099886894226 0  -0.0277280006557703 0.06841199845075607 0  -0.01929000020027161 0.08329900354146957 0  -0.02025699988007545 0.08316099643707275 0  -0.01912900060415268 0.09216699749231339 0  -0.02007300034165382 0.09207200258970261 0  -0.01948300004005432 0.09133800119161606 0  -0.02042300067842007 0.09124699980020523 0  -0.01983099989593029 0.09050700068473816 0  -0.01818500086665154 0.09481800347566605 0  -0.01726699993014336 0.09493900090456009 0  -0.01698900014162064 0.09576699882745743 0  -0.01443199999630451 0.08639299869537354 0  -0.01163600012660027 0.08035700023174286 0  -0.01067099999636412 0.08049999922513962 0  -0.01124299969524145 0.08122800290584564 0  -0.01087599992752075 0.08208999782800674 0  -0.0102939996868372 0.08136499673128128 0  -0.01540299970656633 0.07814300060272217 0  -0.01584099978208542 0.07724899798631668 0  -0.01486499980092049 0.07739900052547455 0  -0.01388899981975555 0.07754799723625183 0  -0.01432500034570694 0.07665500044822693 0  -0.01855999976396561 0.08096999675035477 0  -0.01800999976694584 0.08022899925708771 0  -0.01898599974811077 0.0800819993019104 0  -0.01996400021016598 0.07993700355291367 0  -0.02439199946820736 0.07258400321006775 0  -0.02497299946844578 0.07494500279426575 0  -0.02458599954843521 0.07581800222396851 0  -0.02269599959254265 0.02421299926936626 0  -0.02300000004470348 0.02480999939143658 0  -0.02321900054812431 0.02540200017392635 0  -0.02345499955117702 0.0260390006005764 0  -0.02252800017595291 0.02604199945926666 0  -0.01964499987661839 0.0238649994134903 0  -0.01874000020325184 0.02393100038170815 0  -0.02055400051176548 0.02376900054514408 0  -0.02207699976861477 0.02299500070512295 0  -0.01762400008738041 0.01824099943041801 0  -0.01725099980831146 0.01900400035083294 0  -0.01833000034093857 0.01862999983131886 0  -0.01689999923110008 0.01784100010991096 0  -0.01829800009727478 0.02307300083339214 0  -0.01656799949705601 0.0
[...]
<PointData  Scalars="pressure"> 
<DataArray  type="Float64"  Name="pressure"  format="ascii">8.3961866024652360e-02  8.3668347840444871e-02  8.3847305809792064e-02  8.3557320984277636e-02  8.4101043970957218e-02  8.3743004121842421e-02  8.3418966204248560e-02  8.3186702203472629e-02  8.3059835920900424e-02  8.3570722655091675e-02  8.3456287816980293e-02  8.3456147972594943e-02  8.3717135325057507e-02  8.3694560767589674e-02  5.5609903360932897e-02  5.5342618482884492e-02  5.5973212182934093e-02  6.0834590222272958e-02  6.0394752532507368e-02  6.0960240189539813e-02  6.0702169152477267e-02  3.5376298041697132e-02  3.6563115420415723e-02  3.6349361689983109e-02  4.8256600979658476e-02  4.7419330017168040e-02  4.7068414962414845e-02  4.8604861986889528e-02  8.2132265260058138e-02  8.2251825344400148e-02  8.1829612182596809e-02  8.1401273349554909e-02  8.1708788640288688e-02  8.1932580478597555e-02  8.2374071032930291e-02  8.2484901946405911e-02  8.2046220347986823e-02  8.2550559422464379e-02  8.2309782145196797e-02  8.2881248086996304e-02  8.3227506242213908e-02  8.2956408440635704e-02  8.3328350475220039e-02  8.3849710930665372e-02  8.4118687549418453e-02  8.4101976904405504e-02  8.3799445162804506e-02  8.3734565876343814e-02  8.3447515752008039e-02  1.0755898965084779e-02  1.0568158765708581e-02  1.0660165974322244e-02  9.0663846183673524e-03  8.6040311982170138e-03  9.6068250573316406e-03  2.9860998936313079e-02  2.9187937273013762e-02  2.8929578218340551e-02  3.0677601825909756e-02  2.9977486221276169e-02  2.7891432301078659e-02  2.7505800538947404e-02  2.7406490776274856e-02  2.7065264898973280e-02  3.4116196613631605e-02  3.4858116903547752e-02  3.4145689984533711e-02  3.4447852734313743e-02  2.8793974598970085e-02  2.8601613797745978e-02  2.8919204293483668e-02  3.0575955638003631e-02  2.9973935270667943e-02  2.9913860471610623e-02  3.1164181673330935e-02  3.1170706089067957e-02  3.1809846642357198e-02  3.1498185579848015e-02  3.1377714559765513e-02  3.2105736980878929e-02  3.1718351596286262e-02  3.2333780267908813e-02  3.2434535129470060e-02  2.0662716278682734e-02  2.0963581828999826e-02  2.2549097438196854e-02  2.3820646888603031e-03  2.4831436762659054e-03  1.5861176424530488e-03  8.3536107956163896e-02  8.3254220071412796e-02  8.3770240010498195e-02  8.3968073891909786e-02  8.4436310844524298e-02  8.4395003101905786e-02  8.4499989828740824e-02  8.4308011004688002e-02  8.4213766850976840e-02  8.4178394964460057e-02  8.3459374146705789e-02  8.3828868626819750e-02  8.3618337195304829e-02  8.3743047980852775e-02  8.3386459650821060e-02  8.3963037378888231e-02  8.3632851778803446e-02  8.4052299619144288e-02  8.3822256904602904e-02  8.3753365731822016e-02  8.3309046711544210e-02  8.0400104435293718e-02  8.0627608462919664e-02  8.0547847858614602e-02  7.9063445775270413e-02  7.9139004368210711e-02  7.9505318152431767e-02  8.3021605901430498e-02  8.2315285297968804e-02  8.2777453613886276e-02  8.2666370179277665e-02  8.2897192591455976e-02  8.2438359918594703e-02  7.6432130740762810e-03  7.6783207992820301e-03  7.2513154263081367e-03  7.7068486540206975e-03  2.9765528598124171e-02  3.0922676857580766e-02  2.8803022474365232e-02  5.6710673142096574e-02  5.6843467650550719e-02  5.6623346165970895e-02  5.5221285923123073e-02  5.5131617614136499e-02  5.4982778757770245e-02  5.3173448604339896e-02  5.2972729091170054e-02  5.3768095728300075e-02  5.4254356340015505e-02  5.4378222478565524e-02  5.3538707005728270e-02  5.2626301729970931e-02  5.4001105034943694e-02  5.4378740659241337e-02  5.3626813460113318e-02  5.4002551239911198e-02  9.0154957088689619e-03  9.6816563228600550e-03  9.1027060591089889e-03  9.7009950732176477e-03  7.3534457605160614e-02  7.2984518820407268e-02  7.2982034329579698e-02  7.2431758487655942e-02  5.3135907743183483e-02  4.8147336399449653e-02  4.6489849773887926e-02  4.7232770366604115e-02  4.7487119247386952e-02  5.2002476614362803e-02  6.2911965252300056e-02  6.3377638940615877e-02  6.3585953779841109e-02  6.1106036028406877e-02  6.1433265110329913e-02  6.2243809109735496e-02  6.2632743698473492e-02  6.1811833446148032e-02  6.3765104105875409e-02  6.3342759945309246e-02  6.0207433845780312e-02  6.0115367671337891e-02  5.9784365841869386e-02  5.9544097612953470e-02  6.0114036836093135e-02  5.9395530821586023e-02  5.8939442349455515e-02  5.8535622902223347e-02  5.9297276740387400e-02  5.8476737666237580e-02  5.8142887947985680e-02  6.1445123737910626e-02  4.5851338379369402e-02  4.6697722284910356e-02  3.7323493811815406e-02  3.8002337770992475e-02  3.8239222831670444e-02  3.8917718036090274e-02  3.9177475080938828e-02  3.4811047049917124e-02  3.4193346613417441e-02  3.3478881287290485e-02  3.7579246332085967e-02  3.8474231276797291e-02  3.6529769749383698e-02  3.7101672163925223e-02  3.5894192581165746e-02  3.5338946292195715e-02  4.6530779649481227e-02  4.7767795586811532e-02  4.6194219307286469e-02  4.4444190242597728e-02  4.5724851711486117e-02  4.7697186067671760e-02  4.7907052370054784e-02  4.8914654478744463e-02  4.9767459678836751e-02  5.7753660839064191e-02  5.6068444654964383e-02  5.5253778468015866e-02  8.1969982382283021e-02  8.1637332047239677e-02  8.1357792859137745e-02  8.1027179049576167e-02  8.1276378364633209e-02  8.2793046386745728e-02  8.2903475326389503e-02  8.2672064138596166e-02  8.2621087677600111e-02  8.4585195622525519e-02  8.4529333671410328e-02  8.4496285284854825e-02  8.4625740236684677e-02  8.3321725192772922e-02  8.3498781200070038e-02  8.3148004908300044e-02  8.3113781404102569e-02  8.0431579541990136e-02  8.0233610314475873e-02  8.0201313300021018e-02  8.3230125989360193e-02  8.2322682195871411e-02  8.1870806420726097e-02  8.2130107650327078e-02  8.2036901784461186e-02  8.2509610794385360e-02  8.1435173158692947e-02  8.1020488630814388e-02  8.1289700286246783e-02  6.9205103498964724e-03  6.0176856565142302e-03  6.9380453419504752e-03  8.9910420930556408e-03  8.7958676670199520e-03  9.2891040569055162e-03  1.2021813984624354e-02  1.2713088561018694e-02  1.2588109600768465e-02  1.0535183988247179e-02  1.1783589644441216e-02  1.2976348272908706e-02  1.2024830429271473e-02  1.0931619307230370e-02  1.1001195279732173e-02  1.0283998861847872e-02  1.0348588704573679e-02  9.7533221441756697e-03  1.0375231554284072e-02  9.8292000136679328e-03  9.0117586451865482e-03  9.8700051728742993e-03  1.0401945739807579e-02  1.1302071929817088e-02  1.2000934799472503e-02  1.1139849432331799e-02  9.6508057987424282e-03  3.2273865783360750e-02  3.2977424560953823e-02  3.2750065044565999e-02  3.0500054181945624e-02  3.0843548320849661e-02  3.1382459491791775e-02  3.1510346309605135e-02  2.8836660922775766e-02  2.8733519714322576e-02  2.9348250067234800e-02  2.9421814186104144e-02  2.7964847764514644e-02  2.6564367477725767e-02  2.6555892422589319e-02  2.6495645275156892e-02  2.6979076293271155e-02  3.3472632247263698e-02  3.0035289774667621e-02  3.0508698152115189e-02  3.0257461924247372e-02  2.9699681476403644e-02  3.0002860096091471e-02  2.9070582712516901e-02  2.9558649229037136e-02  2.9543746688589126e-02  2.9077661980239422e-02  2.8982455941160855e-02  2.9144234426794782e-02  2.8349266912235539e-02  3.1785847203201642e-02  3.2119029656822791e-02  3.2635617812068071e-02  3.3073471280228056e-02  3.0553035495835174e-02  2.9252966010490343e-02  2.8662095489421859e-02  3.0077104485515857e-02  3.0683463857394185e-02  3.0133318041208043e-02  3.0217804531665456e-02  2.9597571191879366e-02  3.0496526872554143e-02  3.1090096021821258e-02  3.0391541673555587e-02  3.1801270047802047e-02  3.0307572142357273e-02  2.9749810799476289e-02  3.0900442738357913e-02  3.0510108262644341e-02  3.1965869288010110e-02  3.2224706473684361e-02  3.0991584784558802e-02  2.7495313387330404e-02  2.7100252081629618e-02  2.7670915864546803e-02  2.7344615281428716e-02  2.6089578875983784e-02  2.6140411923343768e-02  2.6286703521622067e-02  2.6258090803930247e-02  3.2668983904287116e-02  3.2367641890616777e-02  3.2763665162566888e-02  3.2237707717817490e-02  3.2217138281124741e-02  3.1798278576044399e-02  3.1898860119405598e-02  3.1837261825997804e-02  3.1922143515773896e-02  3.1603174261365240e-02  3.5485107923047196e-02  3.5301252507704911e-02  3.4980202615219572e-02  3.5801803020881803e-02  3.5944419581093526e-02  3.4649410153113028e-02  3.4191982922704076e-02  3.3894614298904439e-02  3.0521335415167015e-02  3.0050508618902971e-02  3.0909043069344694e-02  2.7893331767212724e-02  2.8605401782953958e-02  2.8266822717629616e-02  1.8181878854098367e-02  1.9997136409946645e-02  1.9459451536105898e-02  1.7499860542718699e-02  1.8896539430282609e-02  2.0799649445294586e-02  2.8462338370552104e-03  3.7395282652691571e-03  3.3342290952415058e-03  3.4511444083832358e-03  2.4988709864641489e-03  7.2453982686344117e-03  6.7502440196961612e-03  5.9732213573150681e-03  3.2142561943404327e-02  3.3102754106450895e-02  3.4285125916529192e-02  4.1316903399167271e-02  4.0186282945602822e-02  4.2221545827067344e-02  4.1116248856060605e-02  4.7880563835022261e-02  4.6163893910763629e-02  4.7089112121662363e-02  8.0194667214860571e-02  8.0032098714643660e-02  7.9979864138658971e-02  2.8898642863581542e-02  2.9865122717140428e-02  3.0590951386513687e-02  2.5720972145504412e-02  2.6528167175024420e-02  2.5085943528784120e-02  2.3655705873730930e-02  2.4524898522209983e-02  1.8765324035629322e-02  1.6679101436652861e-02  1.7672520921679660e-02  1.5910640067104347e-02  2.5509729567202728e-02  2.5337624860604670e-02  2.6757430958706037e-02  2.5625742935213674e-02  2.4290290509051165e-02  2.4327822785992589e-02  2.5640947826518653e-02  2.7089957021527125e-02  2.5605185797812482e-02  2.2226423647672914e-02  2.3236542641193264e-02  2.4272811398248113e-02  2.1483673088552497e-02  2.5330138241900897e-02  2.3805527629562867e-02  2.5569067690036588e-02  2.8317487884960291e-02  2.7274828491625883e-02  2.7457490961785364e-02  1.4787138203170555e-02  1.4122014711743873e-02  1.2668038975740314e-02  1.2040671971958399e-02  1.8335663984035459e-02  1.6885596256869487e-02  1.3661991669125845e-02  1.5741402290987756e-02  1.8987369047061522e-02  2.2895442665933963e-02  2.6438305195327520e-02  2.7800406055575735e-02  2.6141468992016172e-02  2.4721775240966189e-02  2.4103701823117676e-02  9.1755431892429767e-04  1.1168274039737225e-03  1.6349279902101968e-03  1.0950172828137258e-03  2.0470954256100512e-03  1.9574885826741870e-03  5.0957428202670196e-04  1.6189349457789402e-04  6.5576399364127100e-04  8.4298025849092212e-02  8.4630024266421466e-02  8.4571168937317379e-02  8.4546757960563379e-02  8.4118919084503765e-02  8.4343434634158720e-02  8.4239267139787299e-02  8.3778820299764037e-02  8.3965771560087402e-02  8.4084412193352526e-02  8.4120167807285526e-02  8.3912246780962874e-02  8.0642906411916557e-02  8.0874402148145369e-02  8.0899447104569075e-02  8.0616059264697879e-02  8.0677240858456234e-02  8.0796658774383925e-02  8.0478974160595476e-02  8.0551407949092740e-02  8.0207341727606324e-02  8.0239482882967006e-02  7.8652609232837720e-02  7.9572797801936629e-02  7.9499703844391242e-02  8.0021072074330291e-02  7.9452110329112730e-02  7.8979239767919873e-02  8.3156358570697086e-02  8.2674346844670718e-02  6.1685138252004168e-02  6.1944431224919619e-02  6.2871482557282449e-02  6.2426852295448948e-02  6.2760968091705657e-02  6.5160114118868281e-02  6.7252170512864168e-02  6.6978279662414889e-02  6.6344683579880451e-02  6.5299076245353971e-02  6.6794646211566638e-02  3.4473701837692938e-02  3.2436834194481276e-02  3.3273648936782571e-02  1.0701070632040080e-02  3.8718785021584878e-02  3.9540404224905443e-02  4.0661873697681566e-02  7.7515770233791961e-03  8.4425669069159298e-03  8.3441494256821479e-03  8.2565798444464988e-03  8.3285901535032660e-03  5.1299259257292562e-02  5.2009405021732694e-02  5.1064413500552422e-02  5.2270866608491173e-02  5.2384640998170459e-02  5.1220719032948253e-02  5.1944511287539810e-02  4.2000089133734805e-02  4.3911678529609616e-02  4.2226872007643954e-02  4.5701115571619447e-02  4.5506281245366681e-02  4.4174849854447321e-02  5.0135876894603290e-02  5.1340530317363756e-02  5.0608576985275003e-02  5.0019911525720009e-02  4.8811750003855417e-02  4.8589335411289777e-02  4.9710743883897179e-02  4.7065011997867834e-02  4.7716322356594260e-02  4.5967309546040030e-02  4.4052465825330511e-02  4.4710217529472837e-02  4.2707850135653105e-02  4.7079591030622980e-02  4.7206479364045012e-02  4.6006469386732488e-02  4.2643287133269397e-02  4.4997260643190776e-02  1.9665734925150908e-02  1.7997546466199849e-02  1.8665889884469829e-02  3.2631765031235035e-02  3.3611082650439758e-02  3.4765856094785802e-02  3.3360611443582641e-02  1.6806478952438100e-02  1.5523118472705663e-02  1.7112182240008881e-02  1.5299569682578803e-02  1.6624541852074771e-02  1.8073001814929882e-02  3.7152333505134361e-02  3.9373612934616872e-02  3.6991141116021406e-02  3.5084036061390586e-02  3.7440015253257811e-02  3.1136652768968646e-02  3.0862802432507663e-02  2.9252810376401112e-02  3.4843943186929488e-02  3.2883115929268764e-02  1.9180583596559851e-02  1.7599223209863644e-02  1.8573529942600531e-02  1.8317706975425230e-02  1.9931577878613063e-02  2.0854688171639373e-02  1.5325719170435469e-02  1.6735673670221100e-02  1.5620926730361145e-02  1.3908556871453027e-02  1.4268075066660269e-02  1.3419016971626565e-02  1.6347197352014509e-02  1.7386972235045720e-02  5.6357515139809355e-02  5.3250761403990030e-02  5.3877886768955663e-02  5.3287433428477568e-02  5.2519978337189896e-02  5.4520539422703213e-02  5.4130157147874863e-02  5.4367170586521782e-02  5.5161809369511414e-02  5.4802109128962662e-02  5.3868716223079274e-02  5.5715858733331500e-02  5.5364666286725692e-02  5.5261212299011361e-02  5.4947464548889408e-02  5.3535916744544151e-02  5.2525077334147990e-02  5.1628984482248827e-02  5.0242703185467003e-02  5.0997403157898233e-02  5.6066049907957244e-02  5.6093454616214053e-02  5.3170886312204874e-02  5.4642542199937194e-02  9.1864425117366161e-03  7.1838958836411740e-02  7.2391801797915836e-02  7.1886215194279235e-02  7.0729603056601087e-02  7.0727368715104780e-02  7.1252736079803022e-02  7.1331218844628355e-02  7.5150983091224380e-02  7.5065282665468649e-02  7.5722749104233322e-02  7.5814929824108895e-02  7.5253639516539489e-02  7.4577697686305081e-02  7.6899397282822093e-02  7.6832402285186521e-02  7.7421968367494695e-02  7.6281351386077292e-02  7.7379462734840587e-02  7.6797137944318292e-02  7.7941873568049769e-02  7.7997652346638136e-02  4.5760405979346580e-02  4.4998016164107132e-02  4.3884287177279158e-02  4.9372382036068765e-02  4.8454712687230034e-02  4.9975506864604294e-02  5.0570166044382692e-02  5.1335018864855697e-02  4.9104359185140847e-02  5.0867050788860099e-02  4.9531836928019227e-02  5.0268628994249928e-02  2.8442683910385243e-02  2.7693315359559368e-02  2.9554940122182939e-02  3.8456824691576214e-02  3.9874041805141300e-02  4.0627010378810891e-02  6.3959713409227612e-02  6.4572815537762063e-02  6.3986045140344464e-02  6.3269336910270826e-02  6.3537904268933146e-02  6.2860398094573444e-02  6.3546347609890502e-02  6.3818061030156345e-02  6.3122594076594887e-02  5.8972354667840815e-02  5.8570925804933185e-02  5.8813307857788225e-02  5.9196685570306842e-02  5.9332296277252922e-02  5.9348062599826903e-02  5.9611099705838250e-02  5.9839345453042925e-02  6.0510472221474931e-02  6.0771392083869419e-02  6.1087462916721735e-02  6.1460473773817997e-02  6.1267786286820100e-02  6.0736954153997214e-02  6.0582242818404575e-02  6.1140502272038502e-02  6.8077392499050440e-02  6.7253453514280276e-02  6.7739210139857578e-02  6.6834368942480224e-02  5.5056878923540220e-02  5.5173441578396626e-02  5.3827654490672380e-02  5.5020712908584485e-02  5.6313087856445537e-02  6.4249684475416874e-02  6.1904562603196947e-02  6.0823570779786992e-02  5.7469263288447814e-02  5.6313253881298889e-02  5.6427342343750714e-02  5.7654968355785666e-02  5.6341032409630398e-02  5.7540319709776910e-02  5.8752961130837097e-02  5.9936682015527598e-02  5.9720389691338888e-02  5.8943437014566419e-02  6.0521944832440000e-02  5.6466277748833477e-02  5.6576944451817213e-02  5.5556473290892180e-02  2.6709897739083964e-02  2.7790495978470778e-02  2.5359022530777205e-02  5.7301864043783957e-02  5.6944123079626013e-02  5.8913874132091537e-02  6.0481742973699584e-02  4.0830392760533796e-02  4.0980013883319996e-02  3.9868086521893775e-02  4.0634879225339038e-02  4.1698007835243370e-02  4.5174698841130567e-02  4.6713465951442684e-02  4.3419710538352321e-02  4.2864670096241467e-02  4.3791456117288061e-02  4.6139482884469035e-02  4.2815289985246002e-02  4.1936977415487423e-02  4.2515663168356976e-02  4.4593356975754450e-02  4.5525716451583043e-02  3.5194740634045735e-02  3.5701882205208313e-02  3.6007197726299393e-02  3.6216998120293248e-02  3.6622677205635362e-02  3.7080994507654286e-02  3.7564853709415855e-02  3.8541289724662600e-02  3.7910216821409021e-02  3.8879793067389895e-02  3.8464688981249898e-02  3.9421292278144310e-02  3.5639401199410337e-02  3.5413080406191330e-02  2.9113360822072470e-02  3.0299860633339740e-02  2.9693580118082791e-02  2.8527384234157696e-02  3.6344012196520815e-02  3.4759685488995037e-02  3.5176816804115572e-02  2.8983806546340907e-02  3.0717804607815941e-02  2.9770382199967162e-02  3.1475036443330121e-02  2.9812893140195623e-02  3.3637589502502133e-02  3.1409376058240207e-02  3.0825927759790182e-02  3.1896747813204535e-02  3.5091845222628336e-02  3.2406336696946189e-02  3.4606770168341412e-02  4.8056421794235665e-02  4.6779732884395464e-02  4.7445672744271195e-02  4.8944090337798285e-02  4.8620757411479310e-02  2.6418323864920087e-02  2.8901656395342489e-02  5.0117626175676541e-02  5.0298899100347932e-02  4.9813497281715177e-02  5.3327950248819131e-02  5.3480382734426610e-02  5.2466923737551338e-02  5.6769075982982573e-02  5.6125514154263909e-02  5.5892916923489494e-02  4.6618248904775131e-02  5.0049080101983362e-02  4.9132515167052623e-02  5.0263295972119690e-02  5.6313734086525014e-02  5.6624669387865589e-02  5.4877785743865093e-02  5.4142972098653291e-02  5.4704480708394829e-02  8.0840176885693171e-02  8.0670300354503080e-02  8.0390674992345729e-02  8.0520216559595736e-02  8.0307835455383877e-02  8.4193390335141602e-02  8.4327870712714012e-02  8.4333831360245193e-02  8.4461341678623847e-02  8.4042793548634559e-02  8.4211804342690363e-02  8.3522686051405240e-02  7.8023176595404434e-02  7.8134671237515038e-02  7.7605210159422081e-02  7.8525898851716305e-02  7.8914507919089674e-02  7.9292253036915630e-02  7.9373101211024671e-02  8.0594204015818419e-02  8.0679532575007290e-02  8.0260888013534801e-02  8.0146539611499631e-02  7.9826491758401522e-02  7.9700254522512295e-02  8.0492052865732633e-02  7.9961335228042232e-02  7.9381925696972819e-02  7.8916508534006766e-02  7.9241625024159087e-02  7.7052470959648373e-02  7.7499872823709667e-02  7.7933530715908972e-02  8.1589554966523953e-02  8.1692801766396594e-02  8.2741445406041697e-02  7.0002493416368633e-02  6.9090256241709141e-02  6.9245354966034886e-02  7.0086836637398425e-02  8.0117426147258183e-02  7.9925082784269810e-02  8.0215402741563802e-02  7.9998992398111257e-02  7.9845988105234772e-02  8.0468350881496203e-02  8.0553770971856009e-02  7.9083777735752439e-02  7.8602801480968792e-02  7.8286642830771885e-02  7.7959667195257987e-02  7.7723038286723223e-02  7.9629592235439223e-02  7.9452774390893835e-02  7.9266138886390239e-02  7.9007792110750569e-02  8.1911367706519786e-02  8.2341865951445173e-02  8.1933587573366301e-02  8.1537956030457839e-02  8.1927704430723738e-02  8.1909152827795234e-02  8.1675918604517422e-02  8.2083421301537632e-02  8.1165052896481543e-02  8.1191964938718594e-02  8.1097364167284566e-02  8.1796858121249413e-02  8.2346434627769735e-02  8.0977396001998436e-02  8.1137328577396930e-02  8.1306846796566135e-02  8.0911389182939983e-02  8.2963981601328479e-02  8.3118195356462032e-02  8.2791195889036370e-02  8.1566860531204405e-02  8.1708699197397969e-02  8.1232352449971471e-02  6.0423320291216375e-03  5.070072950