<?xml version="1.0"?>
<VTKFile type="UnstructuredGrid"  version="0.1"  >
<UnstructuredGrid>
<Piece  NumberOfPoints="6340" NumberOfCells="12376">
<Points>
<DataArray  type="Float64"  NumberOfComponents="3"  format="ascii">-0.01917899958789349 0.02065300010144711 0  -0.01976599916815758 0.02126800082623959 0  -0.02001000009477139 0.0203000009059906 0  -0.02046000026166439 0.02097499929368496 0  -0.01942100003361702 0.01973900012671947 0  -0.01900400035083294 0.02152200043201447 0  -0.01941899955272675 0.02221900038421154 0  -0.01897200010716915 0.02304299920797348 0  -0.01979400031268597 0.022902000695467 0  -0.01856300048530102 0.02225200086832047 0  -0.00901500042527914 0.01757100038230419 0  -0.009616999886929989 0.01848600059747696 0  -0.009952000342309475 0.01754700019955635 0  -0.01056000031530857 0.01850200071930885 0  -0.02381899952888489 0.07055199891328812 0  -0.02470199950039387 0.07079599797725677 0  -0.02484500035643578 0.07004299759864807 0  -0.02401700057089329 0.0644180029630661 0  -0.02464799955487251 0.0649849995970726 0  -0.0247809998691082 0.06412599980831146 0  -0.02549999952316284 0.064410001039505 0  -0.01169699989259243 0.08298400044441223 0  -0.01252000033855438 0.08275099843740463 0  -0.01197300013154745 0.08224400132894516 0  -0.01828099973499775 0.07693299651145935 0  -0.01735799945890903 0.077224001288414 0  -0.01783400028944016 0.07778000086545944 0  -0.01781000010669231 0.07636900246143341 0  -0.02118599973618984 0.02410300076007843 0  -0.02043600007891655 0.02433500066399574 0  -0.02071399986743927 0.02499900013208389 0  -0.0209560003131628 0.02567699924111366 0  -0.02147700078785419 0.02477400004863739 0  -0.01995700038969517 0.02523699961602688 0  -0.0196519996970892 0.0244939997792244 0  -0.01885399967432022 0.02463000081479549 0  -0.01917300000786781 0.02537900023162365 0  -0.02090400084853172 0.02342100068926811 0  -0.02172099985182285 0.02322399988770485 0  -0.02129000052809715 0.02222000062465668 0  -0.02088700048625469 0.02161500044167042 0  -0.02059200033545494 0.02267899923026562 0  -0.02017699927091599 0.02198100090026855 0  -0.01617899909615517 0.02199899964034557 0  -0.01667200028896332 0.02112199924886227 0  -0.01577199995517731 0.02109899930655956 0  -0.01700899936258793 0.02211499959230423 0  -0.01782899908721447 0.02209199965000153 0  -0.01736100018024445 0.02297599986195564 0  0.04010400176048279 0.07560999691486359 0  0.0398470014333725 0.07473699748516083 0  0.04106900095939636 0.07478400319814682 0  0.0421609990298748 0.08574000000953674 0  0.04289500042796135 0.08594299852848053 0  0.04181399941444397 0.08640500158071518 0  0.02441499941051006 0.09383100271224976 0  0.02463099919259548 0.09314999729394913 0  0.02547900006175041 0.0933770015835762 0  0.02343700081110001 0.09424799680709839 0  0.02365599945187569 0.09342599660158157 0  -0.007499000057578087 0.09077200293540955 0  -0.006719999946653843 0.09104900062084198 0  -0.007309000007808208 0.09153400361537933 0  -0.006517999805510044 0.09181500226259232 0  -0.01721099950373173 0.08918900042772293 0  -0.01747900061309338 0.08856199681758881 0  -0.01655399985611439 0.08888000249862671 0  -0.01806600019335747 0.08912699669599533 0  -0.01479400042444468 0.09454400092363358 0  -0.01510700024664402 0.09517300128936768 0  -0.01547100022435188 0.09448900073766708 0  -0.01057500019669533 0.08916399627923965 0  -0.009841999970376492 0.08937299996614456 0  -0.01042599976062775 0.08986800163984299 0  -0.01132399961352348 0.0889580026268959 0  -0.01073999982327223 0.08846399933099747 0  -0.0114900004118681 0.08825899660587311 0  -0.01381599996238947 0.09019699692726135 0  -0.01436199992895126 0.09067399799823761 0  -0.01460499968379736 0.08997300267219543 0  -0.01266099978238344 0.08923900127410889 0  -0.01344200037419796 0.08902999758720398 0  -0.01285200007259846 0.08854400366544724 0  0.01073700003325939 0.08872800320386887 0  0.01174299977719784 0.08861400187015533 0  0.01111599989235401 0.08928000181913376 0  0.007571000140160322 0.07777699828147888 0  0.008077999576926231 0.07695599645376205 0  0.008576000109314919 0.07766299694776535 0  -0.00877000018954277 0.01665000058710575 0  -0.008012999780476093 0.0168089997023344 0  -0.009581999853253365 0.01658900082111359 0  -0.01042999979108572 0.01652600057423115 0  -0.01381999999284744 0.01669999957084656 0  -0.01401100028306246 0.0178190004080534 0  -0.01460000034421682 0.01694200001657009 0  -0.01326499972492456 0.01758299954235554 0  -0.01325500011444092 0.01863599941134453 0  -0.01249799970537424 0.01771000027656555 0  -0.01272299978882074 0.02159499935805798 0  -0.01319999992847443 0.02064800076186657 0  -0.01233599986881018 0.02063599973917007 0  -0.01193299982696772 0.01972799934446812 0  -0.01139399968087673 0.02055500075221062 0  -0.01281700003892183 0.0196480005979538 0  -0.01358900032937527 0.0216630008071661 0  -0.01492299977689981 0.02095199935138226 0  -0.01530800014734268 0.02193300053477287 0  -0.01445600017905235 0.02180000022053719 0  -0.01005300041288137 0.01943499967455864 0  -0.01138000003993511 0.03070399910211563 0  -0.01187399961054325 0.02984599955379963 0  -0.0109689999371767 0.02973799966275692 0  -0.006364000029861927 0.02909299917519093 0  -0.006794000044465065 0.03008300065994263 0  -0.007290999870747328 0.02923399955034256 0  -0.00915099959820509 0.0194339994341135 0  -0.006874999962747097 0.01867800019681454 0  -0.007778000086545944 0.01859099976718426 0  -0.007091999985277653 0.01782700046896935 0  -0.007195000071078539 0.01697999984025955 0  -0.006289999932050705 0.01717000082135201 0  0.04426899924874306 0.08248999714851379 0  0.04504099860787392 0.08185300230979919 0  0.04486500099301338 0.08304999768733978 0  0.04385599866509438 0.08331099897623062 0  0.01417599990963936 0.05716300010681152 0  0.01514900010079145 0.05687199905514717 0  0.01477599982172251 0.05782800167798996 0  0.02583199925720692 0.04002299904823303 0  0.02618799917399883 0.03892000019550323 0  0.02670699916779995 0.0395210012793541 0  0.02827100083231926 0.04360000044107437 0  0.02908400073647499 0.0427669994533062 0  0.0294829998165369 0.04340999945998192 0  0.02834499999880791 0.04696400091052055 0  0.0274449996650219 0.04722899943590164 0  0.02786999940872192 0.0462229996919632 0  0.02737399935722351 0.04552900046110153 0  0.02833499945700169 0.0452129989862442 0  0.02693399973213673 0.04652399942278862 0  0.02651599980890751 0.04751700162887573 0  0.02639699913561344 0.04586299881339073 0  0.02580299973487854 0.04523900151252747 0  0.02541299909353256 0.04618500173091888 0  0.02480500005185604 0.04555400088429451 0  0.04166100174188614 0.08463899791240692 0  0.04061799868941307 0.08475899696350098 0  0.04125599935650826 0.08410300314426422 0  0.04023699834942818 0.08419699966907501 0  0.005257999990135431 0.02270700037479401 0  0.005913000088185072 0.02313500083982944 0  0.005307999905198812 0.02380800060927868 0  0.006016000173985958 0.02412199974060059 0  0.02442499995231628 0.04650000110268593 0  0.02071600034832954 0.04930799826979637 0  0.02034099958837032 0.05025999993085861 0  0.01972899958491325 0.04960599914193153 0  0.02132200077176094 0.04996300116181374 0  0.02705200016498566 0.04821899905800819 0  0.01513899955898523 0.033330999314785 0  0.01434400025755167 0.03326800093054771 0  0.01466900017112494 0.03232099860906601 0  0.0105560002848506 0.03913399949669838 0  0.009740999899804592 0.03919000178575516 0  0.01010300032794476 0.03824799880385399 0  0.009286999702453613 0.03830499947071075 0  0.008925000205636024 0.03924600034952164 0  0.008839000016450882 0.0374159999191761 0  0.009650000371038914 0.03736300021409988 0  0.01019399985671043 0.04007700085639954 0  -0.02543899975717068 0.06522200256586075 0  -0.02443300001323223 0.06579399853944778 0  -0.02538299933075905 0.06596499681472778 0  -0.02375400066375732 0.06530699878931046 0  -0.02344400063157082 0.06614500284194946 0  -0.0224859993904829 0.06649000197649002 0  -0.02298099920153618 0.06706000119447708 0  -0.02190000005066395 0.06595399975776672 0  -0.02154600061476231 0.06681600213050842 0  -0.02207699976861477 0.06737600266933441 0  -0.02552399970591068 0.063571996986866 0  -0.0173920001834631 0.0786139965057373 0  -0.01830700039863586 0.07833400368690491 0  -0.01723000034689903 0.08603399991989136 0  -0.01805800013244152 0.08583399653434753 0  -0.01749699935317039 0.0853239968419075 0  -0.01832100003957748 0.08512900024652481 0  -0.01776699908077717 0.08460800349712372 0  -0.01661800034344196 0.08823200315237045 0  -0.01584200002253056 0.08843199908733368 0  -0.0157030001282692 0.0890979990363121 0  -0.01281100045889616 0.0820000022649765 0  -0.0104179996997118 0.07728800177574158 0  -0.009499000385403633 0.07757899910211563 0  -0.009984999895095825 0.07812400162220001 0  -0.009592999704182148 0.07893200218677521 0  -0.009089999832212925 0.07839799672365189 0  -0.01413400005549192 0.07461799681186676 0  -0.01460099965333939 0.07371599972248077 0  -0.01367499958723783 0.07402399927377701 0  -0.01274900045245886 0.07433100044727325 0  -0.01320100016891956 0.07343199849128723 0  -0.01688399910926819 0.076664999127388 0  -0.01642699912190437 0.07608400285243988 0  -0.01735799945890903 0.0757799968123436 0  -0.01829000003635883 0.0754769966006279 0  -0.02263399958610535 0.06793700158596039 0  -0.02322899922728539 0.07000400125980377 0  -0.02285300008952618 0.07087499648332596 0  -0.02194900065660477 0.02375500090420246 0  -0.02216999977827072 0.02426999993622303 0  -0.02230500057339668 0.02476399950683117 0  -0.02245100028812885 0.02529600076377392 0  -0.02168699912726879 0.02548000030219555 0  -0.01932300068438053 0.02376200072467327 0  -0.01851800084114075 0.02388899959623814 0  -0.02013400010764599 0.02360500022768974 0  -0.02149900048971176 0.02270700037479401 0  -0.01763599924743176 0.01828099973499775 0  -0.01726599968969822 0.01904300041496754 0  -0.01830000057816505 0.01867000013589859 0  -0.01695399917662144 0.0178810004144907 0  -0.01813800074160099 0.02305799908936024 0  -0.01
[...]
<PointData  Scalars="pressure"> 
<DataArray  type="Float64"  Name="pressure"  format="ascii">4.5595953983226301e-02  4.5576453089525494e-02  4.5606546528473339e-02  4.5575030785914503e-02  4.5602289822075120e-02  4.5536538310957470e-02  4.5476919136977580e-02  4.5324334103118598e-02  4.5371957807002740e-02  4.5429632239181082e-02  4.4243535079417369e-02  4.4200758176426325e-02  4.4401215076036303e-02  4.4379252632807245e-02  2.3666843309432160e-02  2.3502393017397569e-02  2.3772558922742285e-02  2.5754346004478148e-02  2.5580764600416576e-02  2.5824064505949103e-02  2.5642689603268497e-02  1.9112799815417903e-02  1.9305356140032603e-02  1.9294778814990324e-02  2.1231081015522110e-02  2.0995920711918692e-02  2.0994840964911402e-02  2.1229948721117921e-02  4.5041163752482308e-02  4.5018905845987132e-02  4.4802100380441821e-02  4.4554023096881647e-02  4.4823743678582668e-02  4.4749171686495198e-02  4.4990171843952979e-02  4.4939110520125003e-02  4.4701366416402717e-02  4.5224471778078833e-02  4.5180562743273409e-02  4.5389041260355874e-02  4.5503607704730012e-02  4.5389707926688214e-02  4.5508841948082725e-02  4.5135372335097373e-02  4.5309440640895836e-02  4.5145934556260543e-02  4.5266132462443723e-02  4.5382242341438665e-02  4.5190078412410531e-02  1.9429476278551635e-03  9.1707482592979042e-04  1.6861767628546397e-03  6.3243680984513446e-03  5.8154060568263860e-03  7.0033364877427652e-03  1.5588887564629688e-02  1.4430124483509468e-02  1.5802519762520409e-02  1.5347345431737613e-02  1.3952846970634140e-02  1.6814464676502983e-02  1.6444086441789022e-02  1.6810935655453340e-02  1.6442607225843810e-02  1.9194957088256435e-02  1.9308638602136302e-02  1.9147488780789028e-02  1.9107665184131341e-02  1.8568112147846264e-02  1.8500442307315797e-02  1.8548522486323805e-02  1.7939249696876158e-02  1.7705154290364331e-02  1.7927424376854444e-02  1.8161539355859298e-02  1.7981640179529423e-02  1.8209551540691250e-02  1.8726488943490344e-02  1.8788080647300177e-02  1.8846935628749825e-02  1.8518301229089571e-02  1.8677365494601857e-02  1.8549505549184588e-02  2.1744862273347628e-03  1.7554408435896513e-03  2.3335495182151985e-03  1.1223843319479461e-02  1.1795547769327727e-02  1.0715005506106027e-02  4.4291304454631468e-02  4.4147548542575001e-02  4.4434966388559226e-02  4.4563401723218841e-02  4.4975405090020772e-02  4.4979617307266968e-02  4.5082488310345586e-02  4.4872127196992760e-02  4.4835546202165504e-02  4.4761644397039634e-02  4.4362235676927812e-02  4.4624747613172422e-02  4.4418439784037131e-02  4.4465854319778397e-02  4.4203994218633073e-02  4.4663926641457630e-02  4.4572175891108241e-02  4.4979579244663240e-02  4.4959321435570791e-02  4.4772398256581303e-02  4.4106307237092295e-02  4.1082086086226245e-02  4.1508336739620323e-02  4.1287760991944825e-02  3.9846754228980041e-02  3.9757827649710677e-02  4.0197792173069770e-02  4.3895132521716458e-02  4.3456117552721926e-02  4.3753726760400867e-02  4.3760715911176022e-02  4.3934190388483209e-02  4.3611843589267743e-02  4.0474310580546416e-03  3.7069312639617848e-03  3.9294758749675186e-03  4.3835512668348627e-03  1.2679148909621513e-02  1.3490397418886474e-02  1.2674842491723137e-02  3.4342246002731822e-02  3.4213719742143572e-02  3.4363783611509005e-02  3.4674117314323447e-02  3.4648397611982296e-02  3.4731253755477219e-02  3.3791767691327877e-02  3.3446638939082840e-02  3.3954706211821020e-02  3.4048049088048038e-02  3.4308621097998898e-02  3.3585900354854356e-02  3.2949863526696106e-02  3.3653091890614391e-02  3.3654910366900499e-02  3.3137426269746917e-02  3.3138462309337771e-02  6.0072689978808366e-03  6.5588056860206665e-03  5.8306818546174071e-03  6.2232867953909698e-03  3.7923035130032222e-02  3.7626539519430929e-02  3.7682161980623519e-02  3.7398255701450708e-02  3.2489082862239893e-02  2.7544178843897614e-02  2.6189692753878502e-02  2.6443674543669422e-02  2.7329450859600778e-02  3.2766584827194460e-02  3.3394228539626369e-02  3.3438184906806938e-02  3.3600041399961908e-02  3.1419715723224481e-02  3.1334473036137629e-02  3.1862787656228346e-02  3.1809353722339340e-02  3.1267955327364344e-02  3.2258490832379111e-02  3.2299641265638467e-02  3.0817379589290352e-02  2.5416868834691405e-02  2.5331458134715743e-02  2.5161327567575470e-02  2.5449124219852119e-02  2.5143247563141249e-02  2.4935376802459098e-02  2.4770430133037830e-02  2.5064950564002816e-02  2.4702788853534326e-02  2.4563746791322082e-02  2.5915311827922796e-02  2.0772894444430000e-02  2.0979886209256657e-02  1.9457787930579389e-02  1.9580174290937488e-02  1.9596514721037087e-02  1.9721086572293302e-02  1.9747161943827092e-02  1.9182016771547194e-02  1.9073714324672902e-02  1.9029692495981149e-02  1.9473709272932321e-02  1.9326939047835612e-02  1.9145234449858176e-02  1.9258205723943326e-02  1.9175197735263879e-02  1.9070353121109478e-02  2.0398644078851384e-02  2.0647232208215075e-02  2.0269885208744242e-02  1.9946183101847689e-02  2.0137362195026799e-02  2.0976787436750733e-02  2.0945100524428731e-02  2.1227202238374210e-02  2.1505547159547903e-02  2.4416504340638304e-02  2.3783604933369167e-02  2.3471282022281884e-02  4.5037243278740133e-02  4.4870534034065539e-02  4.4715446487733880e-02  4.4525671774077805e-02  4.4568868324273508e-02  4.5182564790142141e-02  4.5115507395869905e-02  4.5221569939805681e-02  4.5297273321878717e-02  4.5465896424257080e-02  4.5447791557326797e-02  4.5526506610185001e-02  4.5380050516133905e-02  4.5266408671138188e-02  4.5062095081996802e-02  4.4799400158423854e-02  4.4946119023959660e-02  4.1302961709793404e-02  4.0901055268183661e-02  4.1069306123766205e-02  4.4128854339075985e-02  4.3414569523347393e-02  4.3002393825052360e-02  4.3285018918436252e-02  4.3149559723265472e-02  4.3535923723400954e-02  4.2573115843578355e-02  4.2107891954778785e-02  4.2392538965640658e-02  3.9727180960669349e-03  3.2111772705213340e-03  3.9058858847891842e-03  4.6921913184821279e-03  5.0046635186685538e-03  5.2988715995365507e-03  4.2129028218704798e-03  4.5113962971940202e-03  3.9048960476304215e-03  1.1234952210811620e-03  9.2901568409239597e-03  1.0312901256420976e-02  9.1710062519515106e-03  8.2751460489355558e-03  8.4863317733041045e-03  7.7107140490489563e-03  6.6012635319685920e-03  5.8839277897041551e-03  6.1869693850484502e-03  5.5560329554416926e-03  6.1881170967791419e-03  7.1589000447606875e-03  7.6097579448817804e-03  8.3852001634689213e-03  8.6234520687310384e-03  7.8648723849653376e-03  6.8146547431030251e-03  1.4792247239000344e-02  1.4539300918846643e-02  1.3332452568896055e-02  1.2808589216812282e-02  1.4165111122147361e-02  1.3389830592020785e-02  1.5068570828665150e-02  1.7442021518363035e-02  1.7689180287197286e-02  1.7696680289618551e-02  1.7452622109735607e-02  1.6462934401583470e-02  1.4252908190957293e-02  1.4279661173293717e-02  1.3464495631363295e-02  1.6822301674160281e-02  1.9001482759670660e-02  1.8693759779402134e-02  1.8710555100528787e-02  1.8770786299438041e-02  1.8610360701585386e-02  1.8838399277721657e-02  1.8587037007490599e-02  1.8694423740551289e-02  1.8642854804329607e-02  1.8544656883822994e-02  1.7003328983016264e-02  1.7283315201178390e-02  1.6890769472069439e-02  1.8061995508046932e-02  1.8130268544994364e-02  1.8323552721314446e-02  1.8716076007193477e-02  1.7732559283429296e-02  1.7908826061073638e-02  1.7904457736768031e-02  1.8686812209675933e-02  1.8734551625704685e-02  1.8625610766038515e-02  1.8551236469518048e-02  1.8506435372986869e-02  1.8142344959430637e-02  1.8339623028546529e-02  1.8315768956039327e-02  1.8365345963987784e-02  1.8449572912233522e-02  1.8284685789870126e-02  1.8596805625854699e-02  1.8801437894580258e-02  1.8890348680110889e-02  1.8778060856815694e-02  1.8487695731970889e-02  1.5457843086492749e-02  1.5305761599569210e-02  1.4831598458408672e-02  1.4627203959069255e-02  1.6457609208306145e-02  1.6047603432405130e-02  1.6121620206611054e-02  1.6488815059055879e-02  1.8523529572856440e-02  1.8203717690769446e-02  1.8538130678784525e-02  1.8463208634856166e-02  1.8278638491603074e-02  1.8150127972417274e-02  1.8360228017178414e-02  1.8249289113057718e-02  1.8237503747752713e-02  1.8036281051890458e-02  1.4302120445313732e-02  1.3386852355023252e-02  1.4220447241705635e-02  1.3657840363096837e-02  1.4556127332784415e-02  1.8054282923972431e-02  1.8242520675404071e-02  1.7653105853133219e-02  1.4815134381797669e-02  1.4403904342214354e-02  1.4015898048589293e-02  1.4040962522977533e-02  1.3463424425683304e-02  1.4295991303007724e-02  3.1586066735581997e-04  7.2976556373280702e-04  5.2823561297089903e-04  1.9258147363278256e-04  4.5757952629938261e-04  8.6460078155340347e-04  1.2630107404560824e-02  1.3651090293939811e-02  1.3461429653942173e-02  1.2853873074646444e-02  1.2437536981307035e-02  1.5292723083430470e-02  1.4660348624988696e-02  1.4755348490844965e-02  1.4458147281765898e-02  1.4733588096996616e-02  1.5825677796693676e-02  2.3138394338938922e-02  2.1895466198262291e-02  2.3624457357379003e-02  2.2387819918722827e-02  2.6015176641743562e-02  2.4596123084883195e-02  2.5009795113837871e-02  4.0717832579920635e-02  4.0574931660877722e-02  4.0376489451613436e-02  2.0399292942636926e-02  2.0937022567332434e-02  2.0717709646339497e-02  1.8693094697153408e-02  1.7960610482764226e-02  1.7807553370089105e-02  1.7829675479141743e-02  1.6904229783025793e-02  5.6526033711806994e-04  6.7278471213342086e-04  5.3925674971433066e-04  3.5382125295785349e-04  1.0537455540404791e-02  1.0789615797213071e-02  1.1616813680950388e-02  1.0335285051256160e-02  9.5374019919636458e-03  9.1162236688198447e-03  1.0169580634981589e-02  1.1331982856542402e-02  9.9225797919797534e-03  7.9199163369215713e-03  8.2055332221522594e-03  9.5153990414193305e-03  6.7582124350714177e-03  4.1720045343873295e-03  3.4359644207748652e-03  3.6540929982187102e-03  8.4938229796798440e-03  8.2258545042606969e-03  7.4238370955091657e-03  8.4939672285312294e-05  2.9433680337733609e-04  1.3431436123183347e-04  4.1121811636762504e-04  5.1739904688036849e-04  1.9227221779870925e-04  6.4391769060799715e-04  6.0759016346816118e-04  1.5854246680041379e-03  2.0063584063177336e-03  2.7876546466122400e-03  3.4353503803612518e-03  2.9530846714805456e-03  2.3452798303430743e-03  2.9532744709685694e-03  9.8142146309582109e-03  1.0334598859814585e-02  1.0363689338862550e-02  9.4622033805919978e-03  1.0090194415823107e-02  1.1509966323276680e-02  7.6576090035788431e-03  7.9608342859575198e-03  8.7353599670781188e-03  4.5140987811734500e-02  4.5293560317220496e-02  4.5189758158165276e-02  4.5219568719141956e-02  4.4827391847768384e-02  4.4868387669937629e-02  4.4776088147441814e-02  4.4465925775613258e-02  4.4590591543511623e-02  4.4674622440555298e-02  4.4676227842157620e-02  4.4538774925249824e-02  4.1717944052619013e-02  4.1991565634610831e-02  4.2219637721319016e-02  4.1944980133644082e-02  4.1488832958042537e-02  4.1704421474231881e-02  4.1219311372879187e-02  4.1436400003536551e-02  4.0944195835054861e-02  4.1137501537832570e-02  3.9382545220905681e-02  4.1228444624473524e-02  4.1057942685131028e-02  4.1545171232141277e-02  4.0870170445224195e-02  4.0548157833600704e-02  4.3998965331719722e-02  4.3651110221364170e-02  2.6121611812044816e-02  2.6184926046535800e-02  2.6845084642402577e-02  2.6573947944749567e-02  2.6767381814785864e-02  3.3380796160714821e-02  3.4446309895579626e-02  3.4168150553415100e-02  3.4686164387697699e-02  3.4131320872901327e-02  3.5078780952711094e-02  2.0382443897529683e-02  1.8700557810305191e-02  1.8746920874005413e-02  5.4913634988318361e-04  2.3501433841108230e-02  2.3937169280879293e-02  2.5225003109310973e-02  3.8536243400091996e-03  3.4194677464589205e-03  3.2620706017423727e-03  3.6967531154180984e-03  3.6335603828599669e-03  3.3103639208366890e-02  3.3829992666839219e-02  3.3234319066669425e-02  3.3745234835581860e-02  3.3951673007400728e-02  3.2835627233629941e-02  3.3304860843906506e-02  2.5081635764482999e-02  2.6802178322726418e-02  2.5438655636355331e-02  2.8386402420764022e-02  2.8102437482295382e-02  2.7153741414299628e-02  3.1571781828390807e-02  3.2502582810505588e-02  3.2121986071996907e-02  3.1881320814228925e-02  3.0946381794749591e-02  3.0697383402807980e-02  3.1543960871065674e-02  2.9014178824299117e-02  2.9750498462365684e-02  2.8208814868868087e-02  2.6469294066407609e-02  2.7167263499313348e-02  2.5308844586097196e-02  2.9942998790584038e-02  3.0302830414982419e-02  2.9262464678688802e-02  2.6685551668791930e-02  2.8392238566313715e-02  1.3563755557115979e-02  1.4045070125207270e-02  1.3866072305980328e-02  1.5977175890179007e-02  1.6328055812442420e-02  1.7387841110239780e-02  1.5530503327894107e-02  1.7518938996093820e-02  1.8184393208996889e-02  1.8021445441359397e-02  1.7732374600529333e-02  1.6991258312313250e-02  1.6648264881799119e-02  1.8587040845803218e-02  1.9331206563214035e-02  1.8042492380946597e-02  1.8020409745833414e-02  1.9200041374951907e-02  1.6708532194391834e-02  1.5926427383438597e-02  1.5849881338448765e-02  1.7379942046927693e-02  1.6927757655472449e-02  1.3750881677749384e-02  1.4652825283429935e-02  1.4277808113279916e-02  1.4119795319228216e-02  1.3318249179630657e-02  1.2899476897864439e-02  1.6704665702383947e-02  1.5847495728385296e-02  1.6120316789884400e-02  7.9237995660649506e-03  7.1237863612839073e-03  7.1710628946265783e-03  1.4618688707058727e-02  1.4198250247691916e-02  3.4444418193240380e-02  3.4000474296707175e-02  3.4434506579088725e-02  3.4252176101268808e-02  3.3562599593874191e-02  3.4636294397410040e-02  3.4571056433948109e-02  3.4539986685912162e-02  3.4575526357595525e-02  3.4367754081250770e-02  3.4192926508411485e-02  3.4194251195724792e-02  3.4265047088504468e-02  3.3970914517784279e-02  3.4037358948061633e-02  3.2521620647716944e-02  3.1728595243653700e-02  2.9398252992418095e-02  2.8257449506025049e-02  2.8521320341826025e-02  3.4120480834207600e-02  3.4335630817213282e-02  3.3073880152068365e-02  3.4068233009761750e-02  5.5805485957965252e-03  3.7090604069852741e-02  3.7317710823947241e-02  3.7044306583113515e-02  3.6489063272786178e-02  3.6534188295048356e-02  3.6745887163370725e-02  3.6836335842589260e-02  3.8191318136336902e-02  3.7919090927836269e-02  3.8417793387621510e-02  3.8680420326199838e-02  3.8448455992961213e-02  3.7984669509348694e-02  3.9163501454651826e-02  3.8906700106556058e-02  3.9419746831861127e-02  3.8653828373531450e-02  3.9180012171446836e-02  3.8654350702773961e-02  3.9699616969120728e-02  3.9932226547369602e-02  2.5904994269255400e-02  2.5582737513123635e-02  2.4350645921192425e-02  2.9511509261415880e-02  2.8412920758272620e-02  2.9700532783444498e-02  2.9854752587522411e-02  3.0782617744051881e-02  2.8660131886964323e-02  3.1913138559667799e-02  3.0858173942098520e-02  3.1174157428368151e-02  1.3468812801834590e-02  1.3299346228085426e-02  1.4261717327458701e-02  2.1380501663818007e-02  2.2604701675958419e-02  2.3360324236447044e-02  3.3890215702321390e-02  3.4023166610161942e-02  3.3846347893577780e-02  3.3711067764368767e-02  3.3688797308288609e-02  3.3534061152752231e-02  3.3282211254246602e-02  3.3477514250437539e-02  3.3268232857587697e-02  3.3473469274211395e-02  3.3564078124412186e-02  3.3594330960330231e-02  3.3511518272855187e-02  3.3390059033160398e-02  3.3355494883486457e-02  3.3252249885908823e-02  3.3317145299613528e-02  3.3288980456252594e-02  3.3354086282660303e-02  3.3317920382568492e-02  3.3315819401638649e-02  3.3382748443349777e-02  3.3303280223604632e-02  3.3239543677941470e-02  3.3277761798635550e-02  3.3934970932153120e-02  3.3528112611619247e-02  3.3571332056929346e-02  3.3149040540317795e-02  2.8796252852601574e-02  2.9208700143368488e-02  2.8229438357741273e-02  2.8437490326675995e-02  2.9349557348143145e-02  3.3517326379977314e-02  3.1949213544034398e-02  3.1534517262125444e-02  3.0188093203306007e-02  2.9705404345835698e-02  2.8829148331621087e-02  2.9671400313689551e-02  2.9072257968563352e-02  2.9914627972559501e-02  3.0452317753000429e-02  3.0954502427084481e-02  3.1117143215806938e-02  3.0271293681812226e-02  3.0720739544519121e-02  2.3713655843315549e-02  2.3735206898840910e-02  2.3278660817699685e-02  1.8436143731439317e-02  1.8743856084483215e-02  1.8715923686507346e-02  2.4189291526903692e-02  2.4064258776758184e-02  2.4939469903936098e-02  2.5607611529179244e-02  1.9978241567880198e-02  1.9989801619339539e-02  1.9813055186487624e-02  1.9957983247576354e-02  2.0136876951101054e-02  2.0191791817460412e-02  2.0508508688285854e-02  2.0526235354089609e-02  2.0335765707159503e-02  2.0523462518938870e-02  2.0764450212344743e-02  2.0328522384739794e-02  2.0160500015400085e-02  2.0297983056428274e-02  2.0559274801920473e-02  2.0764043301618993e-02  1.9199538424877576e-02  1.9310101395114455e-02  1.9231402182700547e-02  1.9336424298428665e-02  1.9407462833263563e-02  1.9447216276478940e-02  1.9533280314113527e-02  1.9681632698206709e-02  1.9486659610032934e-02  1.9634603341108673e-02  1.9610191594660865e-02  1.9769281974792968e-02  1.9124796109619226e-02  1.9272796854736124e-02  1.7797652998788459e-02  1.8127303111168180e-02  1.8072132598050655e-02  1.7731443187506881e-02  1.9260041615231462e-02  1.9067035609317298e-02  1.9142665315085867e-02  1.8302538487891314e-02  1.8556788522044395e-02  1.8466863165392838e-02  1.8648045647727419e-02  1.8394444950286096e-02  1.8938549708629258e-02  1.8418166678868253e-02  1.8172435437493750e-02  1.8444504600171184e-02  1.9095529754255543e-02  1.8787615822932976e-02  1.8960320775514572e-02  2.0823459331596461e-02  2.0596044213721763e-02  2.0520679134999453e-02  2.0912000544008137e-02  2.0799412693951073e-02  1.9105723420971592e-02  1.9142577688362382e-02  2.1232126368949306e-02  2.1329707967335240e-02  2.1100679626394336e-02  2.2465745154932628e-02  2.2469703830959080e-02  2.2114998122954647e-02  2.3920830093554384e-02  2.3610318939843809e-02  2.3536077218233590e-02  2.0706588968625868e-02  2.1501698554926597e-02  2.1206849965337417e-02  2.1478790706396640e-02  2.3943380582869388e-02  2.4026757861927709e-02  2.3385792798937551e-02  2.3157914402322073e-02  2.3287736930266801e-02  4.4309292500064913e-02  4.4305478043032191e-02  4.4030353358398000e-02  4.3998187193909251e-02  4.4070222289930523e-02  4.5578015247244405e-02  4.5569128851846739e-02  4.5432385506801995e-02  4.5363747620578078e-02  4.5417717474625585e-02  4.5510035311462596e-02  4.4907353832692412e-02  4.1763455582482185e-02  4.1625155842187712e-02  4.1329516096316354e-02  4.2072920918811520e-02  4.2518601056884313e-02  4.2952795471869504e-02  4.2817501170119510e-02  4.3083894479518249e-02  4.2940955606759333e-02  4.2600830080281905e-02  4.2735367209058184e-02  4.2260520277380288e-02  4.2407077800377960e-02  4.3190864881628731e-02  4.2134938180453649e-02  4.1940090364573655e-02  4.1638849504157603e-02  4.2089819717411166e-02  4.1056383005489576e-02  4.1468398146575006e-02  4.1901441722977911e-02  4.4418028467842985e-02  4.4361111403716652e-02  4.4642588886028602e-02  3.7365627590527237e-02  3.6847932897000682e-02  3.6971765605205834e-02  3.7451159177037840e-02  4.1244220091067485e-02  4.0879907656425518e-02  4.1821428509905320e-02  4.1401285087488270e-02  4.1528843840121905e-02  4.2303892647297232e-02  4.2134661079767245e-02  4.1502538243799091e-02  4.1219358397782027e-02  4.0840176017831881e-02  4.0512294386975796e-02  4.0582915050593305e-02  4.1130714600614016e-02  4.1258323085154765e-02  4.1378720703048474e-02  4.0994258861482391e-02  4.4047467815248070e-02  4.4283349174508067e-02  4.3883387474249677e-02  4.3430221542946575e-02  4.3683804699167786e-02  4.3127296829441178e-02  4.2943204783935755e-02  4.3410544387034899e-02  4.2498001446526920e-02  4.2731571356025427e-02  4.2221240974747352e-02  4.3221006697650444e-02  4.3564290752020840e-02  4.1959807453983478e-02  4.2190697798013314e-02  4.2466829055225024e-02  4.1914725482517172e-02  4.3889028578067965e-02  4.3979522142227348e-02  4.3796069796126949e-02  4.2724820186892574e-02  4.2871348863983000e-02  4.2453470563761760e-02  3.3291210627626124e-03  2.533335513