<?xml version="1.0"?>
<VTKFile type="UnstructuredGrid"  version="0.1"  >
<UnstructuredGrid>
<Piece  NumberOfPoints="6340" NumberOfCells="12376">
<Points>
<DataArray  type="Float64"  NumberOfComponents="3"  format="ascii">-0.01926299929618835 0.02069400064647198 0  -0.01985600031912327 0.02131900005042553 0  -0.02009999938309193 0.02034999988973141 0  -0.02055699937045574 0.02103199996054173 0  -0.01950399950146675 0.01977800019085407 0  -0.01908699981868267 0.02156499959528446 0  -0.0195080004632473 0.02226999960839748 0  -0.01905900053679943 0.0230919998139143 0  -0.01988999918103218 0.02295899949967861 0  -0.01864499971270561 0.02229299955070019 0  -0.009034000337123871 0.01759099960327148 0  -0.009635999798774719 0.01850499957799911 0  -0.009971000254154205 0.01756699942052364 0  -0.0105790002271533 0.01852199994027615 0  -0.0239889994263649 0.07096199691295624 0  -0.02487600035965443 0.07122199982404709 0  -0.0250220000743866 0.07046700268983841 0  -0.02420699968934059 0.06482400000095367 0  -0.02484199963510036 0.06540200114250183 0  -0.02497600018978119 0.0645420029759407 0  -0.02569999918341637 0.06483999639749527 0  -0.01172600034624338 0.08335600048303604 0  -0.01255599968135357 0.08313299715518951 0  -0.01201200019568205 0.08260700106620789 0  -0.01840700022876263 0.0773020014166832 0  -0.01747599989175797 0.07758300006389618 0  -0.01794799976050854 0.07815700024366379 0  -0.01793899945914745 0.07672200351953506 0  -0.02130600064992905 0.02419300004839897 0  -0.02054399996995926 0.02440599910914898 0  -0.0208320003002882 0.02508600056171417 0  -0.02108299918472767 0.0257789995521307 0  -0.02160800062119961 0.02488099969923496 0  -0.02006199955940247 0.02530599944293499 0  -0.01975099928677082 0.02455499954521656 0  -0.0189449992030859 0.02468400076031685 0  -0.01926999911665916 0.02543899975717068 0  -0.02101499959826469 0.02349399961531162 0  -0.02184600010514259 0.02331800013780594 0  -0.02140000090003014 0.02229000069200993 0  -0.02098999917507172 0.02167900092899799 0  -0.0206959992647171 0.02274299971759319 0  -0.02027400024235249 0.02203799970448017 0  -0.0162349995225668 0.02201800048351288 0  -0.01672999933362007 0.02114100009202957 0  -0.01581900008022785 0.02111800014972687 0  -0.01707600057125092 0.02213400043547153 0  -0.01790300011634827 0.02212199941277504 0  -0.01743300072848797 0.02300399914383888 0  0.0403750017285347 0.07557100057601929 0  0.0400950014591217 0.07470999658107758 0  0.04132800176739693 0.07475399971008301 0  0.04274500161409378 0.08560200035572052 0  0.04349099844694138 0.08580300211906433 0  0.04241000115871429 0.08628199994564056 0  0.02499699965119362 0.0939830020070076 0  0.02520000003278255 0.09328799694776535 0  0.0260620005428791 0.09351199865341187 0  0.02401800081133842 0.09441599994897842 0  0.02422099933028221 0.09357699751853943 0  -0.007306999992579222 0.09119600057601929 0  -0.006504999939352274 0.09145700186491013 0  -0.007091999985277653 0.09196200221776962 0  -0.006277999840676785 0.09222900122404099 0  -0.01719599962234497 0.08975899964570999 0  -0.01747599989175797 0.08912599831819534 0  -0.01653899997472763 0.08943399786949158 0  -0.01805900037288666 0.08971100300550461 0  -0.01463199965655804 0.0951559990644455 0  -0.0149320000782609 0.0957999974489212 0  -0.01532400026917458 0.09511200338602066 0  -0.01049199979752302 0.08961900323629379 0  -0.009739999659359455 0.08981800079345703 0  -0.01032099965959787 0.09032999724149704 0  -0.01125700026750565 0.08942399919033051 0  -0.01067699957638979 0.0889120027422905 0  -0.01144099980592728 0.0887179970741272 0  -0.01375399995595217 0.09072799980640411 0  -0.01429599989205599 0.09122200310230255 0  -0.01455700024962425 0.09051399677991867 0  -0.01260500028729439 0.08973400294780731 0  -0.01339800003916025 0.08953499794006348 0  -0.01281100045889616 0.08903100341558456 0  0.01106599997729063 0.08889500051736832 0  0.01207899954169989 0.08877100050449371 0  0.01146099995821714 0.08945400267839432 0  0.007625000085681677 0.0777679979801178 0  0.008112000301480293 0.07694800198078156 0  0.008636999875307083 0.07764299958944321 0  -0.008790000341832638 0.01666999980807304 0  -0.008030000142753124 0.01682900078594685 0  -0.009602000005543232 0.01660900004208088 0  -0.01044999994337559 0.01654599979519844 0  -0.01384999975562096 0.016720000654459 0  -0.01404299959540367 0.01783899962902069 0  -0.01463299989700317 0.01696199923753738 0  -0.01329299993813038 0.01760300062596798 0  -0.01328399963676929 0.01865500025451183 0  -0.01252400036901236 0.01772999949753284 0  -0.01275200024247169 0.02161299996078014 0  -0.01322999969124794 0.02066699974238873 0  -0.01236299984157085 0.02065400034189224 0  -0.01195800025016069 0.01974700018763542 0  -0.01141799986362457 0.02057299949228764 0  -0.01284500025212765 0.01966699957847595 0  -0.01362099964171648 0.02168099954724312 0  -0.01496099960058928 0.02097100019454956 0  -0.01535299979150295 0.02195099927484989 0  -0.01449200045317411 0.02181899920105934 0  -0.0100720003247261 0.01945400051772594 0  -0.01140999980270863 0.03071999922394753 0  -0.0119049996137619 0.02986199967563152 0  -0.01099700015038252 0.02975399978458881 0  -0.006380000151693821 0.02910899929702282 0  -0.006808999925851822 0.03009900078177452 0  -0.007306999992579222 0.02924999967217445 0  -0.009170000441372395 0.01945300027728081 0  -0.006887999828904867 0.01869699917733669 0  -0.007794999983161688 0.01861000061035156 0  -0.007104999851435423 0.01784699968993664 0  -0.007209000177681446 0.01700000092387199 0  -0.006300000008195639 0.0171900000423193 0  0.04478799924254417 0.08230800181627274 0  0.04553800076246262 0.08168700337409973 0  0.04541200026869774 0.08285199850797653 0  0.04440300166606903 0.08311399817466736 0  0.01418399997055531 0.05727500095963478 0  0.01514200028032064 0.05699900165200233 0  0.014767000451684 0.05795099958777428 0  0.02578499913215637 0.04027700051665306 0  0.02614600025117397 0.03917700052261353 0  0.02664599940180779 0.03978399932384491 0  0.02813199907541275 0.043869998306036 0  0.02893700078129768 0.04304400086402893 0  0.0293199997395277 0.04368399828672409 0  0.02817000076174736 0.04720799997448921 0  0.02728299982845783 0.0474729984998703 0  0.02771000005304813 0.04647500067949295 0  0.02723200060427189 0.04578400030732155 0  0.02817700058221817 0.04547199979424477 0  0.02679000049829483 0.04677199944853783 0  0.02637100033462048 0.04775699973106384 0  0.02627200074493885 0.04611299932003021 0  0.02569800056517124 0.04548700153827667 0  0.02530499920248985 0.04642900079488754 0  0.02471699938178062 0.04579300060868263 0  0.04221599921584129 0.0844850018620491 0  0.04116500169038773 0.08461499959230423 0  0.04179500043392181 0.08394200354814529 0  0.04076699912548065 0.08404599875211716 0  0.005307000130414963 0.022749999538064 0  0.00597199983894825 0.02318100072443485 0  0.005357999820262194 0.02385099977254868 0  0.006076000165194273 0.02416899986565113 0  0.02433400042355061 0.04673400148749352 0  0.0206729993224144 0.04950100183486938 0  0.02029499970376492 0.05044899880886078 0  0.01970499940216541 0.0497869998216629 0  0.02125800028443336 0.05016300082206726 0  0.02689000032842159 0.04845299944281578 0  0.01524300035089254 0.03343899920582771 0  0.01444999966770411 0.03336799889802933 0  0.01477700006216764 0.03242399916052818 0  0.01063300017267466 0.03920299932360649 0  0.009816000238060951 0.03925099968910217 0  0.01018100045621395 0.03831199929118156 0  0.009363999590277672 0.03836100175976753 0  0.008999000303447247 0.03929800167679787 0  0.008911999873816967 0.03747100010514259 0  0.009728999808430672 0.03742299973964691 0  0.01026799995452166 0.0401419997215271 0  -0.02563600055873394 0.06565199792385101 0  -0.02462200075387955 0.06621000170707703 0  -0.0255769994109869 0.06639499962329865 0  -0.02394100092351437 0.06571199744939804 0  -0.02362699992954731 0.0665460005402565 0  -0.02266299910843372 0.06687700003385544 0  -0.02315800078213215 0.06745500117540359 0  -0.02207499928772449 0.06633199751377106 0  -0.02171700075268745 0.06718999892473221 0  -0.02224799990653992 0.06775899976491928 0  -0.02572399936616421 0.0639989972114563 0  -0.01749599911272526 0.07899899780750275 0  -0.01841799914836884 0.07872900366783142 0  -0.01725899986922741 0.0865510031580925 0  -0.01809499971568584 0.08636199682950974 0  -0.01753499917685986 0.08583399653434753 0  -0.01836699992418289 0.08564899861812592 0  -0.01781499944627285 0.08511000126600266 0  -0.01661299914121628 0.08877599984407425 0  -0.01582800038158894 0.08896700292825699 0  -0.01567699946463108 0.0896420031785965 0  -0.01285700034350157 0.08237200230360031 0  -0.010495999827981 0.07753600180149078 0  -0.009569000452756882 0.07781600207090378 0  -0.01005300041288137 0.07837899774312973 0  -0.009654000401496887 0.07919300347566605 0  -0.00915099959820509 0.07864200323820114 0  -0.01424400042742491 0.0749019980430603 0  -0.01471299957484007 0.0740009993314743 0  -0.01378200016915798 0.07429499924182892 0  -0.01284999959170818 0.07458999752998352 0  -0.0133050000295043 0.07369100302457809 0  -0.01700600050389767 0.07700599730014801 0  -0.01654800027608871 0.07641299813985825 0  -0.01748500019311905 0.07612200081348419 0  -0.01842400059103966 0.07583300024271011 0  -0.02280599996447563 0.06832700222730637 0  -0.02339700050652027 0.07040099799633026 0  -0.02301600016653538 0.07127299904823303 0  -0.0220819991081953 0.02386300079524517 0  -0.02230999991297722 0.02439000084996223 0  -0.02245200052857399 0.02489599958062172 0  -0.02260500006377697 0.02543999999761581 0  -0.0218260008841753 0.02560199983417988 0  -0.01941699907183647 0.02381700091063976 0  -0.01860300078988075 0.02393599972128868 0  -0.02023500017821789 0.02366800047457218 0  -0.02161600068211555 0.0227889996021986 0  -0.01769600063562393 0.01830100081861019 0  -0.01732500083744526 0.01906299963593483 0  -0.0183700006455183 0.01868999935686588 0  -0.01700500026345253 0.01790099963545799 0  -0.01821699924767017 0.02309600077569485 0  -0.016607
[...]
<PointData  Scalars="pressure"> 
<DataArray  type="Float64"  Name="pressure"  format="ascii">5.6840613100113763e-02  5.6728732416277586e-02  5.6841382136412592e-02  5.6726747695513786e-02  5.6928845603279085e-02  5.6719680817462738e-02  5.6572766421269502e-02  5.6386292213110985e-02  5.6394757001658989e-02  5.6583385636313981e-02  5.6462558183902292e-02  5.6353909322423353e-02  5.6601445075111181e-02  5.6491719297588582e-02  2.4816967428798749e-02  2.4689585395335736e-02  2.5172851080095308e-02  2.8823938363138998e-02  2.8489714806875177e-02  2.8963753987943396e-02  2.8760052008056848e-02  1.4853758624741049e-02  1.5232951935009263e-02  1.5249472843859815e-02  1.9750154897667405e-02  1.9305284225941972e-02  1.9166055562666050e-02  1.9895090269914893e-02  5.5926055943162127e-02  5.5925948714020464e-02  5.5661919842222414e-02  5.5366902886268721e-02  5.5662102883747885e-02  5.5626554530881264e-02  5.5921381486264070e-02  5.5899057151828246e-02  5.5611553282207300e-02  5.6164788561034712e-02  5.6115698837230131e-02  5.6433160066746466e-02  5.6594127952692433e-02  5.6392579341750390e-02  5.6579067721414654e-02  5.6537838189666359e-02  5.6747486275734831e-02  5.6677454508593454e-02  5.6576143758897891e-02  5.6613469467902508e-02  5.6386215051564520e-02  6.9433418651682855e-03  5.9844185020447218e-03  6.7412955200662986e-03  1.2104051755154992e-02  1.1751845878707989e-02  1.2713272668565966e-02  2.0592734663289182e-02  1.9426621393528697e-02  2.0952965962652080e-02  2.0169712947088990e-02  1.8787067101217150e-02  1.1929624369058452e-02  1.1516547165431427e-02  1.1996862101741106e-02  1.1614553595595802e-02  1.5074942419686276e-02  1.5244075315451987e-02  1.5035876078883174e-02  1.5123077293170892e-02  1.4458919647305370e-02  1.4478895348962729e-02  1.4491181203897145e-02  1.3258889971832107e-02  1.2943326859250657e-02  1.3260840663018386e-02  1.3561649220800056e-02  1.3286293459648440e-02  1.3592279403778711e-02  1.4397071348379684e-02  1.4513540232375055e-02  1.4577695544019156e-02  1.4056818931811287e-02  1.4291099805583657e-02  1.4097883054858956e-02  1.1534198568595045e-03  1.2040712419315366e-03  1.5720738271446308e-03  9.2145621640767998e-03  1.0171246919448590e-02  8.9999906897466325e-03  5.6523391979258555e-02  5.6377499794415038e-02  5.6658794979760035e-02  5.6762639574532814e-02  5.6978610814932600e-02  5.6931146077600241e-02  5.7010779522417399e-02  5.6894786300289338e-02  5.6785850220538260e-02  5.6824544935896025e-02  5.6108263527552223e-02  5.6421250368587597e-02  5.6273746907503440e-02  5.6417694674174762e-02  5.6114457729384060e-02  5.6568693251161088e-02  5.6252096373412712e-02  5.6607824011785962e-02  5.6458063034897941e-02  5.6365313172086637e-02  5.6166860067247117e-02  5.2394284776407528e-02  5.2877598205415717e-02  5.2692881380122028e-02  5.1096771224835254e-02  5.0949716575120471e-02  5.1508704814685273e-02  5.5983207572449789e-02  5.5617483910632710e-02  5.5936920946895237e-02  5.5962258957448836e-02  5.6149623195276444e-02  5.5802970595019992e-02  1.0270553539314466e-02  9.9994837627904315e-03  1.0159035108797383e-02  1.0502980432328314e-02  1.6504281825176097e-02  1.7561802272849834e-02  1.6675445445950784e-02  4.0686961331309293e-02  4.0564896934140358e-02  4.0687128833187036e-02  4.0912468427506538e-02  4.0721438697342828e-02  4.0860335369154864e-02  3.9960026685300569e-02  3.9594478185965370e-02  4.0138777143240809e-02  4.0249829946601146e-02  4.0527733322560572e-02  3.9739398324555808e-02  3.9074612074435140e-02  3.9814841634204311e-02  3.9835928945951254e-02  3.9262522925936343e-02  3.9282877125922933e-02  1.1772131663556288e-02  1.2250563869425243e-02  1.1657495996713445e-02  1.2032504772303249e-02  4.8508410437646109e-02  4.8113214490149901e-02  4.8199330199342597e-02  4.7805954423541387e-02  3.8581943911609545e-02  3.3258554510378277e-02  3.1784730589973990e-02  3.2000640065838547e-02  3.3050278863736772e-02  3.8901242950278525e-02  4.1474035653401589e-02  4.1629170951950116e-02  4.1906626685984001e-02  3.8562790594553670e-02  3.8497245318014649e-02  3.9343348827439534e-02  3.9349968878490758e-02  3.8467644967424393e-02  4.0168880346257714e-02  4.0125108685460695e-02  3.7629161246377184e-02  2.8322143013053032e-02  2.8002089487286573e-02  2.7878650353906284e-02  2.8261213291981481e-02  2.7696829264128413e-02  2.7343739952392310e-02  2.7018828070900919e-02  2.7608550962950236e-02  2.6960702329254377e-02  2.6672717478394954e-02  2.9300502270857530e-02  1.8606274001607012e-02  1.9015030160821546e-02  1.5522114536388626e-02  1.5744920001984221e-02  1.5762148405903474e-02  1.5995352217396730e-02  1.6041764454200899e-02  1.5098439228221225e-02  1.4912569847394639e-02  1.4839162190853591e-02  1.5628430734645198e-02  1.6595444555778053e-02  1.6167237949695008e-02  1.6165472053239757e-02  1.5734794854066998e-02  1.5734319568466208e-02  1.9199917064201551e-02  1.9832217932651806e-02  1.9204185722500156e-02  1.8627121299898734e-02  1.9192249992272162e-02  1.9427852206491236e-02  1.9544407408393295e-02  2.0044566895239969e-02  2.0534354974668063e-02  2.6372869535102907e-02  2.5103671287548077e-02  2.4481266690143406e-02  5.5933449677155814e-02  5.5737736755884455e-02  5.5544929435165868e-02  5.5314588103905903e-02  5.5362059850181757e-02  5.6171561416454151e-02  5.6148098676017867e-02  5.6180274148401974e-02  5.6284780502336547e-02  5.7062917157340437e-02  5.7002368247068586e-02  5.7049783720539447e-02  5.7054799930380505e-02  5.6387288195899020e-02  5.6337234767654981e-02  5.6047378686705868e-02  5.6111730223438239e-02  5.2552820575696574e-02  5.2099912141941186e-02  5.2222450475109691e-02  5.5937644807379318e-02  5.5127491120447514e-02  5.4671920552894632e-02  5.4915506026190414e-02  5.4888329868853211e-02  5.5336471775978203e-02  5.4188595023528345e-02  5.3679256029385593e-02  5.3964676897130602e-02  1.0265637578876014e-02  9.8794287152745765e-03  1.0367542088368065e-02  1.0871964841159456e-02  1.1055342708418608e-02  1.1320261084921551e-02  9.2203202847822990e-03  9.3683771953777389e-03  8.7588903940205905e-03  6.1821352061096711e-03  1.4717312141415398e-02  1.5558034726404431e-02  1.4696606338180894e-02  1.3766684574571026e-02  1.4007783153208810e-02  1.3331380886846990e-02  1.2344154012766012e-02  1.1795964034828717e-02  1.2026718695470741e-02  1.1532307000003496e-02  1.1933151364882327e-02  1.2804495852066385e-02  1.3091060645673058e-02  1.3825276563217664e-02  1.4123140615752039e-02  1.3378805285063891e-02  1.2426149499060487e-02  1.9077121318809537e-02  1.8512962640827288e-02  1.7327335875799592e-02  1.7395775062955813e-02  1.8837255738567218e-02  1.7834689847303960e-02  1.9649067195828013e-02  1.2637047785689012e-02  1.2993033791442673e-02  1.2961615015981764e-02  1.2609812856107955e-02  1.1462653287435828e-02  9.7016772489986556e-03  9.5088870245669411e-03  8.9137759293171082e-03  1.2109276335562056e-02  1.4974893006343800e-02  1.4587171887576043e-02  1.4610986811758764e-02  1.4589316048928849e-02  1.4568278115314930e-02  1.4684215052682126e-02  1.4432915938143460e-02  1.4551964608781212e-02  1.4446312781235386e-02  1.4331872792409071e-02  1.1670032028170609e-02  1.1984946399845337e-02  1.1483479754317821e-02  1.3152038544242305e-02  1.3307774571038645e-02  1.3540864727847986e-02  1.4346973016165439e-02  1.2950773357201503e-02  1.3280935553231456e-02  1.3313634903591760e-02  1.4454237162624856e-02  1.4471305871234234e-02  1.4332169626720917e-02  1.4192692358179569e-02  1.4180355889074001e-02  1.3547929060066830e-02  1.3814177178731389e-02  1.3802330715868940e-02  1.3834694604702911e-02  1.4017947541067555e-02  1.3799842900949221e-02  1.4215378961276073e-02  1.4647283264925794e-02  1.4660010119069852e-02  1.4452705398534577e-02  1.4031955040035123e-02  1.1743547438514095e-02  1.1493387590264850e-02  1.1075553740415654e-02  1.0801741664871724e-02  1.2332781644716571e-02  1.1840109045458808e-02  1.2072998224829438e-02  1.2507115339562613e-02  1.4878723696494987e-02  1.4659314361882048e-02  1.4931419567374897e-02  1.4798051776013531e-02  1.4686842540422206e-02  1.4559944849948679e-02  1.4712606152935792e-02  1.4623384079875873e-02  1.4635638647583063e-02  1.4479337353634870e-02  1.6255907978663883e-02  1.5635209861620029e-02  1.6702407067560380e-02  1.5219619044390956e-02  1.5795484514960680e-02  1.4822388669117635e-02  1.4910398264846528e-02  1.4473538562195066e-02  1.1690790634065387e-02  1.1221237113880997e-02  1.0997272568538748e-02  1.0338191689943151e-02  9.8872347198457090e-03  1.0701010241910988e-02  1.5861782443776463e-03  2.1753752499536474e-03  1.6327910359340775e-03  1.0989512007247709e-03  1.1856256679192009e-03  1.7877634362218160e-03  1.1437129823066754e-02  1.2648900007858482e-02  1.2697200315492494e-02  1.1398207009562400e-02  1.1505553483337389e-02  1.6100658185496868e-02  1.5336799856325021e-02  1.5274840677609383e-02  1.8808095659738233e-02  1.8858504896469230e-02  2.0248652852765260e-02  2.8744299961589025e-02  2.7436731856901965e-02  2.9303716122685682e-02  2.7931444224465099e-02  3.1383028485047829e-02  2.9775643679864155e-02  3.0183555457383660e-02  5.1937743957732811e-02  5.1643495188405171e-02  5.1486373259471037e-02  2.3284046327173728e-02  2.3617995530034949e-02  2.3605956893832589e-02  2.1923520905780612e-02  2.1340171236094038e-02  2.1169940109673664e-02  2.1119697758476743e-02  2.0346911161810338e-02  2.1580435011766316e-03  2.5286025492709929e-03  2.2660283146996568e-03  1.8861120044428269e-03  1.5043272736751464e-02  1.5205553972916234e-02  1.6333179604199236e-02  1.4998658192202500e-02  1.3857658459397031e-02  1.3664082661111545e-02  1.4927299555977599e-02  1.6437302464075425e-02  1.4835476625869957e-02  1.2315156145253491e-02  1.2987401345771933e-02  1.4096119022901879e-02  1.1332605737153938e-02  2.5786567231716540e-03  2.0170716686876483e-03  2.5240915932500056e-03  5.5801130199563884e-03  5.0714833236767207e-03  4.6365302239779627e-03  3.7927480417684206e-04  1.6154380728016990e-04  2.0555968252298704e-04  4.5362275708423286e-05  8.3984987927547550e-04  7.1004566477104319e-04  5.8277690527080636e-05  2.6108171990046891e-04  7.9292167946460462e-04  1.7007129250714874e-03  3.0080181920457642e-03  3.5179683566181497e-03  2.7380655788268983e-03  2.2957847866416949e-03  2.0019079445825812e-03  8.0413920296399065e-03  8.9160219091410677e-03  8.2774568747968295e-03  7.3256619905319505e-03  7.6184315590301279e-03  1.0158757963146012e-02  6.8525738843773394e-03  6.8413042687484882e-03  7.8884462089856364e-03  5.6798946131269942e-02  5.7056195835279606e-02  5.7036612139513700e-02  5.6998451339780397e-02  5.6671107834364479e-02  5.6933641905993544e-02  5.6881262142666741e-02  5.6502437015759764e-02  5.6675378163104737e-02  5.6798519994129056e-02  5.6836486592806650e-02  5.6708912559701244e-02  5.3037875487103064e-02  5.3372445622427933e-02  5.3528554421337790e-02  5.3161355021831176e-02  5.2955097937542051e-02  5.3214666354964024e-02  5.2703734411814064e-02  5.2933450454253690e-02  5.2396205140947394e-02  5.2604131816705965e-02  5.0539880196887071e-02  5.2718349033938426e-02  5.2487412104905616e-02  5.3098524642531342e-02  5.2261759840256730e-02  5.1867946056781529e-02  5.6175758707176490e-02  5.5754014935010907e-02  2.9463188763297336e-02  2.9743549907359099e-02  3.0431250231739197e-02  3.0100282014565570e-02  3.0369138938845137e-02  3.8897668035006307e-02  4.0453302717613923e-02  4.0079296285585292e-02  4.0726053248280963e-02  3.9935067164333878e-02  4.1289960324647323e-02  2.4733922992267864e-02  2.2804567299711049e-02  2.3367743722782067e-02  5.5943781698434177e-03  2.8177566120944998e-02  2.8895649781294636e-02  2.9863442878062856e-02  1.0202865375314799e-02  9.7370966772330481e-03  9.6977111858358740e-03  1.0115757035718964e-02  1.0067288924818566e-02  3.8894212479729663e-02  3.9508150248615814e-02  3.8695834580564963e-02  3.9738469176791795e-02  3.9726196278532036e-02  3.8741481155429518e-02  3.9328804370384121e-02  3.0339514451294264e-02  3.2183059437740420e-02  3.0713158580669191e-02  3.3809310292207607e-02  3.3576508653328049e-02  3.2486454854154044e-02  3.7581456082567362e-02  3.8589992401340666e-02  3.8105552324182036e-02  3.7661852480497783e-02  3.6585496538723263e-02  3.6336087052218920e-02  3.7348240712582109e-02  3.4753829385997602e-02  3.5460444043681920e-02  3.3760596601731405e-02  3.1980005249074919e-02  3.2631915191465535e-02  3.0744658816600358e-02  3.5312810656213243e-02  3.5400476779207234e-02  3.4292985886288957e-02  3.1441223191664487e-02  3.3364742533177325e-02  1.6820529767501403e-02  1.6971187161840075e-02  1.6944624233893642e-02  2.0967340045541377e-02  2.1279170718438524e-02  2.2514355346129951e-02  2.0149311112450101e-02  2.0203359959726167e-02  2.0604760899531220e-02  2.0674088668965879e-02  2.0191015999746421e-02  1.9695967566600733e-02  1.9587320855681042e-02  2.1296551979510477e-02  2.1964961585519211e-02  2.0730559157716624e-02  2.0858196066834908e-02  2.1945001942726215e-02  1.9773367100843365e-02  1.8919304355572757e-02  1.8962469057353402e-02  2.0172156899685212e-02  1.9853399626502521e-02  1.6895736805499009e-02  1.7560970550254244e-02  1.7319988774133023e-02  1.7139359988431115e-02  1.6579870870787376e-02  1.6236029565576855e-02  1.9241275342891068e-02  1.8609239797898955e-02  1.8716044270648539e-02  9.8307078647263957e-03  9.2210890111889075e-03  9.1048528754039924e-03  1.7191158650720684e-02  1.6930688653780543e-02  4.0749890585528151e-02  4.0188054672944007e-02  4.0620767174020987e-02  4.0426405587621644e-02  3.9688367328188444e-02  4.0695454199179699e-02  4.0624469875347777e-02  4.0720892887544137e-02  4.0674041101019090e-02  4.0626860731829979e-02  4.0403376321564627e-02  4.0496097747995931e-02  4.0521049092660917e-02  4.0232972580213022e-02  4.0274383380891961e-02  3.8627429708608045e-02  3.7777523251221405e-02  3.5239708731567843e-02  3.3946257571976925e-02  3.4237436726727979e-02  4.0466581720249466e-02  4.0669204221315959e-02  3.9198138613396293e-02  4.0284941451186794e-02  1.1502222887055800e-02  4.7390593147977250e-02  4.7699022458955437e-02  4.7321173358008936e-02  4.6469164371911065e-02  4.6604910434301788e-02  4.6876024025368730e-02  4.7029282344763668e-02  4.9023052320860343e-02  4.8755471023975580e-02  4.9313330312351064e-02  4.9578308816759967e-02  4.9284212585354460e-02  4.8749376828075591e-02  5.0188597104031840e-02  4.9932273338958590e-02  5.0515189301595202e-02  4.9613103266599852e-02  5.0267144791590591e-02  4.9686774812697912e-02  5.0866074257808092e-02  5.1114824783513861e-02  3.1559539833835165e-02  3.1309950456332135e-02  2.9929394681580797e-02  3.5444434506824059e-02  3.4275327597785510e-02  3.5597062525909301e-02  3.5737926520521553e-02  3.6738900696055843e-02  3.4473229562625045e-02  3.7969498438167132e-02  3.6890838952912910e-02  3.7220638843765766e-02  1.8279043682237144e-02  1.8016401542326824e-02  1.9202584441488649e-02  2.6742090859832562e-02  2.8010986064053681e-02  2.8730827277240537e-02  4.2321609552285235e-02  4.2618669602056604e-02  4.2288045631703901e-02  4.1962887037441984e-02  4.2021118053404589e-02  4.1672202151987567e-02  4.1425174785043220e-02  4.1768925953166051e-02  4.1320304390878970e-02  4.0542048177642065e-02  4.0546275335719036e-02  4.0549662104481417e-02  4.0544151857121700e-02  4.0535601002145892e-02  4.0455688356881785e-02  4.0407314583600751e-02  4.0545479340416114e-02  4.0796002412253604e-02  4.0888975455807414e-02  4.0978922528766767e-02  4.1083755911991593e-02  4.1033914822508635e-02  4.0816536418019703e-02  4.0675954656965281e-02  4.0885186980733942e-02  4.3280960479018714e-02  4.2581959410391682e-02  4.2746932571510937e-02  4.1995857458696537e-02  3.4561074339231126e-02  3.5094475306700137e-02  3.3826169738246030e-02  3.4074695049285536e-02  3.5343850036605916e-02  4.1900986993194583e-02  3.9370390681501943e-02  3.8651079270261936e-02  3.6490837423020596e-02  3.5770311501689453e-02  3.4615460902961123e-02  3.5835508828979151e-02  3.4950296970622054e-02  3.6141487729601282e-02  3.6955242633619739e-02  3.7762093631096866e-02  3.7922187728136408e-02  3.6739143311240438e-02  3.7542039378433881e-02  2.5439267762128077e-02  2.5578990207241845e-02  2.4797476819659388e-02  1.7023632511729194e-02  1.7515518082333606e-02  1.7486674937344474e-02  2.5991947926612663e-02  2.5717163343982677e-02  2.7325433548953643e-02  2.8545693976013191e-02  1.6593563998717697e-02  1.6669517652472807e-02  1.6257921584109741e-02  1.6518506712414949e-02  1.6920943911576065e-02  1.8606091922050663e-02  1.9170208644522957e-02  1.7646347971077135e-02  1.7447277923529840e-02  1.7839359427444617e-02  1.8725993128703003e-02  1.7362563370874575e-02  1.7020850058670357e-02  1.7247072242975260e-02  1.8079554493264639e-02  1.8481928065325615e-02  1.5220299778806602e-02  1.5293441547595561e-02  1.5317142054607312e-02  1.5367180238657633e-02  1.5446790093247124e-02  1.5530679198404677e-02  1.5628710501478814e-02  1.5860096898486376e-02  1.5673965135025874e-02  1.5944187075847285e-02  1.5790251421000268e-02  1.6097499314343920e-02  1.4860794111862186e-02  1.5252529590606525e-02  1.2664975490634653e-02  1.3152837847475280e-02  1.3108706591828244e-02  1.2610944718652026e-02  1.5732388235517945e-02  1.5306973685107016e-02  1.5306696894129446e-02  1.4011959563452589e-02  1.4457318851061336e-02  1.4474814520904666e-02  1.4456461983098839e-02  1.4007282757127235e-02  1.4878665974753116e-02  1.3614295183245100e-02  1.3206134717547086e-02  1.3646363381553377e-02  1.4853586793871573e-02  1.4900537585104637e-02  1.5734810474350679e-02  1.9717024222654402e-02  1.9114895024968607e-02  1.9831841199856856e-02  2.0462665748679137e-02  2.0472788767129761e-02  1.8070848222851224e-02  1.8126184713255701e-02  2.1149588745226239e-02  2.1116463016091172e-02  2.1125668473740637e-02  2.2897584661067789e-02  2.3052954246165588e-02  2.2339273349050989e-02  2.5558150737844190e-02  2.5070161517613793e-02  2.4847249521719558e-02  1.8937038171760089e-02  2.0686591228278494e-02  2.0176766431448508e-02  2.0818981286069786e-02  2.5370420804146400e-02  2.5688665882305395e-02  2.4295624785648284e-02  2.3774418908333747e-02  2.4107224984068518e-02  5.5054323562346276e-02  5.5062629354308786e-02  5.4714938843675023e-02  5.4711113536887089e-02  5.4789028793408925e-02  5.6913551274780830e-02  5.6997671112878234e-02  5.6904763166689666e-02  5.6950776642535048e-02  5.6761723290377278e-02  5.6884165246804168e-02  5.6278273951418614e-02  5.2107133336084792e-02  5.2001978306392631e-02  5.1577346418488490e-02  5.2522715055239436e-02  5.3031913321291625e-02  5.3511678067072029e-02  5.3411464932574960e-02  5.3977528905817043e-02  5.3910691725467509e-02  5.3503483032522441e-02  5.3553598084215386e-02  5.3076828161347192e-02  5.3149617977424964e-02  5.4024180858142173e-02  5.3014914814866212e-02  5.2655145890320415e-02  5.2233408989061064e-02  5.2738557787139477e-02  5.1163849869929008e-02  5.1692778493242629e-02  5.2221091098008765e-02  5.5280910064494454e-02  5.5255503994557566e-02  5.5790357229109265e-02  4.4895649770788859e-02  4.4027171981575013e-02  4.4264379987705466e-02  4.5081256191625306e-02  5.2314462170031537e-02  5.1867785923623483e-02  5.2878787804964911e-02  5.2398815656949455e-02  5.2459867706853514e-02  5.3366042541930434e-02  5.3275387731867220e-02  5.2153709168416204e-02  5.1730639668698244e-02  5.1242712336648018e-02  5.0763422978889874e-02  5.0796449178181116e-02  5.1985455569636033e-02  5.2051976576380679e-02  5.2099705482847807e-02  5.1622647540879425e-02  5.5107447230386450e-02  5.5427185221017763e-02  5.5021921120714620e-02  5.4592750014283514e-02  5.4925205080001538e-02  5.4686149423449196e-02  5.4432499138035211e-02  5.4895763304438246e-02  5.3844960442962927e-02  5.4017267933925500e-02  5.3672151532281234e-02  5.4627746402731325e-02  5.5130362131450360e-02  5.3459886596231285e-02  5.3720064955884800e-02  5.3956012980664478e-02  5.3453855979034452e-02  5.5747916915431739e-02  5.5934989794795248e-02  5.5554585602587685e-02  5.4405033697138630e-02  5.4624118174535899e-02  5.4123073050617712e-02  9.8493456550825271e-03  9.333571746