<?xml version="1.0"?>
<VTKFile type="UnstructuredGrid"  version="0.1"  >
<UnstructuredGrid>
<Piece  NumberOfPoints="6340" NumberOfCells="12376">
<Points>
<DataArray  type="Float64"  NumberOfComponents="3"  format="ascii">-0.0195509996265173 0.02080300077795982 0  -0.02034799940884113 0.02152599953114986 0  -0.02054999954998493 0.02051999978721142 0  -0.02121400088071823 0.02136999927461147 0  -0.01976500079035759 0.01987599954009056 0  -0.01941500045359135 0.02168799936771393 0  -0.02001000009477139 0.02248799987137318 0  -0.01952799968421459 0.02328700013458729 0  -0.02057899907231331 0.02332999929785728 0  -0.01893699914216995 0.02240299992263317 0  -0.007571999914944172 0.01810899935662746 0  -0.008294999599456787 0.01893699914216995 0  -0.008621999993920326 0.01799499988555908 0  -0.009353999979794025 0.01886199973523617 0  -0.02556500025093555 0.08027400076389313 0  -0.02648199908435345 0.08088599890470505 0  -0.02666799910366535 0.08008100092411041 0  -0.02622699923813343 0.07342199981212616 0  -0.02683399990200996 0.07428900152444839 0  -0.02704700082540512 0.07337799668312073 0  -0.02776999957859516 0.07395999878644943 0  -0.01148799993097782 0.09051299840211868 0  -0.01239699963480234 0.09051600098609924 0  -0.01191399991512299 0.08967500180006027 0  -0.0193840004503727 0.08556000143289566 0  -0.01838500052690506 0.08555400371551514 0  -0.01882600039243698 0.08639699965715408 0  -0.01894400082528591 0.08471199870109558 0  -0.02255499921739101 0.02513499930500984 0  -0.02158699929714203 0.02508600056171417 0  -0.02204700000584126 0.02599699981510639 0  -0.02246199920773506 0.02690800093114376 0  -0.02303499914705753 0.02606000006198883 0  -0.02106999978423119 0.02595200017094612 0  -0.02058400027453899 0.02504600025713444 0  -0.01956300064921379 0.02500399947166443 0  -0.02006700076162815 0.02590399980545044 0  -0.02208800055086613 0.02420200034976006 0  -0.0231500007212162 0.02432099916040897 0  -0.02243999950587749 0.02294000051915646 0  -0.02184499986469746 0.02217799983918667 0  -0.0215889997780323 0.02327599935233593 0  -0.02096600085496902 0.02240799926221371 0  -0.01599700003862381 0.02198000065982342 0  -0.01651700027287006 0.02110300026834011 0  -0.01544800028204918 0.02108000032603741 0  -0.01699299924075603 0.02210099995136261 0  -0.01800999976694584 0.02216099947690964 0  -0.01751199923455715 0.02303300052881241 0  0.04148700088262558 0.0849049985408783 0  0.04136199876666069 0.08402600139379501 0  0.04261700063943863 0.0843840017914772 0  0.04170000180602074 0.09640700370073318 0  0.04242900013923645 0.09683100134134293 0  0.0414469987154007 0.09731300175189972 0  0.02564699947834015 0.1050779968500137 0  0.02577199973165989 0.1041240021586418 0  0.02661300078034401 0.104602999985218 0  0.02475900016725063 0.1055139973759651 0  0.02487000077962875 0.1043549999594688 0  -0.005365999881178141 0.09887599945068359 0  -0.004459000192582607 0.09891600161790848 0  -0.004989000037312508 0.09975399821996689 0  -0.004075999837368727 0.09979899972677231 0  -0.01624800078570843 0.1005090028047562 0  -0.01663300022482872 0.09979099780321121 0  -0.01560899987816811 0.09987500309944153 0  -0.01715599931776524 0.1007329970598221 0  -0.01254300028085709 0.1064649969339371 0  -0.01273399963974953 0.1073750033974648 0  -0.01331099960952997 0.1066590026021004 0  -0.00918199960142374 0.09807299822568893 0  -0.008321999572217464 0.09805399924516678 0  -0.008848000317811966 0.09890200197696686 0  -0.01003899984061718 0.09808900207281113 0  -0.009513000026345253 0.09724300354719162 0  -0.01037000026553869 0.0972599983215332 0  -0.01247499976307154 0.1005960032343864 0  -0.01296399999409914 0.1014069989323616 0  -0.01336599979549646 0.1005960032343864 0  -0.01142899971455336 0.09894499927759171 0  -0.01230200007557869 0.09895899891853333 0  -0.01176400016993284 0.09811999648809433 0  0.01190700009465218 0.0952569991350174 0  0.01285899989306927 0.09526800364255905 0  0.01233800034970045 0.09612700343132019 0  0.007550000213086605 0.07876600325107574 0  0.008174999617040157 0.07792200148105621 0  0.008500000461935997 0.07877600193023682 0  -0.007249999791383743 0.01724000088870525 0  -0.006390000227838755 0.01748999953269958 0  -0.008158000186085701 0.01710299961268902 0  -0.009105999954044819 0.01695900037884712 0  -0.01293000020086765 0.01682999916374683 0  -0.01321300026029348 0.01791599951684475 0  -0.01383399963378906 0.0170230008661747 0  -0.01235099975019693 0.01773599907755852 0  -0.01239600032567978 0.01876099966466427 0  -0.01149400044232607 0.0179239995777607 0  -0.01195899955928326 0.02169300056993961 0  -0.012449000030756 0.02073699980974197 0  -0.01146699953824282 0.02078299969434738 0  -0.01096499990671873 0.0199350006878376 0  -0.01040199957787991 0.02078399993479252 0  -0.01195599976927042 0.01978100091218948 0  -0.01295099966228008 0.0217099990695715 0  -0.01443399954587221 0.0209369994699955 0  -0.01495900005102158 0.02191399969160557 0  -0.01394900027662516 0.02179599925875664 0  -0.008833000436425209 0.0198149997740984 0  -0.01094899978488684 0.03070200048387051 0  -0.01146399974822998 0.02983300015330315 0  -0.01042500045150518 0.02977799996733665 0  -0.00519500020891428 0.02953300066292286 0  -0.005727999843657017 0.03045099973678589 0  -0.006242000032216311 0.02957900054752827 0  -0.007822000421583652 0.01990099996328354 0  -0.00518900016322732 0.01943599991500378 0  -0.006221999879926443 0.01923500001430511 0  -0.005388999823480844 0.01858899928629398 0  -0.00546000013127923 0.0177609995007515 0  -0.004430000204592943 0.01806000061333179 0  0.04370899870991707 0.09242700040340424 0  0.04477300122380257 0.09203899651765823 0  0.04410300031304359 0.09309899806976318 0  0.04303300008177757 0.0931679978966713 0  0.0174770001322031 0.059944998472929 0  0.01855799928307533 0.05994899943470955 0  0.01803199946880341 0.06080200150609016 0  0.03218600153923035 0.04618800058960915 0  0.03272100165486336 0.04517599940299988 0  0.03317200019955635 0.04595800116658211 0  0.03411699831485748 0.05061500146985054 0  0.0350789986550808 0.05002399906516075 0  0.0353740006685257 0.05079900100827217 0  0.0336260013282299 0.05403099954128265 0  0.03267300128936768 0.05403300002217293 0  0.03327099978923798 0.05314699932932854 0  0.03288599848747253 0.05229099839925766 0  0.03391100093722343 0.05226799845695496 0  0.03227400034666061 0.05316099897027016 0  0.03168600052595139 0.05403700098395348 0  0.03184200078248978 0.05232499912381172 0  0.03134199976921082 0.05150299891829491 0  0.03079099953174591 0.05234299972653389 0  0.03027299977838993 0.05150499939918518 0  0.04108799993991852 0.09471800178289413 0  0.04010099917650223 0.09470999985933304 0  0.04063399881124496 0.09386599808931351 0  0.0396680012345314 0.09382499754428864 0  0.009430999867618084 0.02552100084722042 0  0.01023900043219328 0.02603800036013126 0  0.009415999986231327 0.02657699957489967 0  0.01030000019818544 0.02699499949812889 0  0.02973200008273125 0.05234799906611443 0  0.02548100054264069 0.0540199987590313 0  0.02494899928569794 0.05487100034952164 0  0.02440899983048439 0.0540039986371994 0  0.02600900083780289 0.05488499999046326 0  0.03210899978876114 0.05490700155496597 0  0.02089500054717064 0.03698499873280525 0  0.01994800008833408 0.03680700063705444 0  0.02041600085794926 0.03595399856567383 0  0.01488700043410063 0.04186299815773964 0  0.01388199999928474 0.04181899875402451 0  0.01439999975264072 0.04096899926662445 0  0.01339299976825714 0.04092700034379959 0  0.0128760002553463 0.04177499935030937 0  0.01290300022810698 0.04002900049090385 0  0.01391199976205826 0.04007799923419952 0  0.01436999998986721 0.04271199926733971 0  -0.02763500064611435 0.07485000044107437 0  -0.02653799951076508 0.07511900365352631 0  -0.02751100063323975 0.07566399872303009 0  -0.0258760005235672 0.07431799918413162 0  -0.02548000030219555 0.07514499872922897 0  -0.02445399947464466 0.07517600059509277 0  -0.02491799928247929 0.07599999755620956 0  -0.02389200031757355 0.07435499876737595 0  -0.02344799973070621 0.07519300282001495 0  -0.0239499993622303 0.0760200023651123 0  -0.0278680007904768 0.07303500175476074 0  -0.01826599985361099 0.08722700178623199 0  -0.01926600001752377 0.08723700046539307 0  -0.01679299958050251 0.09643299877643585 0  -0.01769700087606907 0.0964760035276413 0  -0.01719300076365471 0.09561699628829956 0  -0.01809299923479557 0.09566400200128555 0  -0.01760100014507771 0.09480100125074387 0  -0.01578399911522865 0.09905699640512466 0  -0.01493600010871887 0.09904100000858307 0  -0.01467599999159575 0.0998539999127388 0  -0.01284699980169535 0.08968000113964081 0  -0.01109699998050928 0.08298400044441223 0  -0.01010300032794476 0.0829790011048317 0  -0.01054400019347668 0.08382099866867065 0  -0.0100100003182888 0.08465299755334854 0  -0.009561000391840935 0.08381299674510956 0  -0.01519499998539686 0.08127299696207047 0  -0.01572399958968163 0.08041100203990936 0  -0.01473699975758791 0.08041399717330933 0  -0.01374899968504906 0.08041699975728989 0  -0.0142639996483922 0.0795539990067482 0  -0.01794599927961826 0.08470799773931503 0  -0.01751199923455715 0.08385200053453445 0  -0.0185100007802248 0.08385200053453445 0  -0.01950900070369244 0.08385399729013443 0  -0.02448300085961819 0.0768589973449707 0  -0.02497100085020065 0.07942499965429306 0  -0.02453400008380413 0.08027800172567368 0  -0.02352599985897541 0.02505199983716011 0  -0.02388999983668327 0.02576000057160854 0  -0.02414200082421303 0.02645899914205074 0  -0.02441300079226494 0.02721199952065945 0  -0.02341100014746189 0.02700800076127052 0  -0.02006999962031841 0.02416200004518032 0  -0.01903899945318699 0.02410699985921383 0  -0.02110300026834011 0.02418499998748302 0  -0.02278400026261806 0.02360999956727028 0  -0.0174540001899004 0.01826100051403046 0  -0.01707099936902523 0.01902399957180023 0  -0.01827000081539154 0.0186500009149313 0  -0.01661599986255169 0.01786099933087826 0  -0.01848400011658669 0.02319700084626675 0  -0.016501000151038
[...]
<PointData  Scalars="pressure"> 
<DataArray  type="Float64"  Name="pressure"  format="ascii">2.2610505288842148e-02  2.2570991087808450e-02  2.2576631519319400e-02  2.2546745725826885e-02  2.2604247364657243e-02  2.2594393828079824e-02  2.2553720598436494e-02  2.2540298576434591e-02  2.2507872820850230e-02  2.2587706521284237e-02  2.3346194079781050e-02  2.3259125602415789e-02  2.3254405878020731e-02  2.3187473146496787e-02  2.2428343235394114e-02  2.2452815919552997e-02  2.2400383035564915e-02  2.1933689570573851e-02  2.1953095823261909e-02  2.1874085135291807e-02  2.1925560833033389e-02  1.6451260796187066e-02  1.6931938203806420e-02  1.6901529082306268e-02  2.1703250423964284e-02  2.1526170561876314e-02  2.1323294027474654e-02  2.1869507015230619e-02  2.2380524263057450e-02  2.2409899209726480e-02  2.2358278038568491e-02  2.2302839785504784e-02  2.2334385824768908e-02  2.2383396142086044e-02  2.2438677874874750e-02  2.2471886889121034e-02  2.2414610474390743e-02  2.2428123748229389e-02  2.2388028928486299e-02  2.2470078394347771e-02  2.2509995330847771e-02  2.2475299124085427e-02  2.2526329377485735e-02  2.2703591355092576e-02  2.2702948321875013e-02  2.2748862747417695e-02  2.2661695316223085e-02  2.2624519168177093e-02  2.2617401052524036e-02  2.4639506218246732e-02  2.3176860457755070e-02  2.5244245221855918e-02  3.6789057533492896e-02  3.7213682726858086e-02  3.7436396999959681e-02  3.5578428019247578e-02  3.4947866515868183e-02  3.5754590446501665e-02  3.5364023989841106e-02  3.4578125016138689e-02  2.0060051547099562e-02  2.0341638507917252e-02  2.0780675864668849e-02  2.1079894889147889e-02  1.9243772649782470e-02  1.9046542262801166e-02  1.9153534348228626e-02  1.9238378113997739e-02  2.1469960721243089e-02  2.1748501728954442e-02  2.1429151144222537e-02  1.8739187150348030e-02  1.8824740454835856e-02  1.9319176628411729e-02  1.8683451864718044e-02  1.8176052363989684e-02  1.8183051699264461e-02  1.9665780074474535e-02  1.9883937554806882e-02  1.9561317936825570e-02  1.9072429066139530e-02  1.9036237385672665e-02  1.8666898114104501e-02  1.9658798837143880e-02  1.9763509194124777e-02  2.0088639017155616e-02  2.2416054318504450e-03  1.6961303156272159e-03  1.5381303701178378e-03  2.3342166204827347e-02  2.3439271438019497e-02  2.3259972685581946e-02  2.3175888131458988e-02  2.2964261626726261e-02  2.2953842647231590e-02  2.2916117172464098e-02  2.3013372833911295e-02  2.2987721725990243e-02  2.3071194595026254e-02  2.2926116344736312e-02  2.2924922187149935e-02  2.2987509489376601e-02  2.3050374797387092e-02  2.3057761802379343e-02  2.2987801143560978e-02  2.2865104078546392e-02  2.2802294892475122e-02  2.2751636941711249e-02  2.2805913064711237e-02  2.3195661631528738e-02  2.2638122257852961e-02  2.2630863240637362e-02  2.2700969621055202e-02  2.2962130818267867e-02  2.2935734857047755e-02  2.2905821510485008e-02  2.3261555456935958e-02  2.3531277745553698e-02  2.3446183415178685e-02  2.3566901294015598e-02  2.3534174813140414e-02  2.3602102867566976e-02  3.3840884235726447e-02  3.3862583400677194e-02  3.4513237875880516e-02  3.4351242677782001e-02  1.4401642201641439e-02  1.4828776089228567e-02  1.3880551151981339e-02  2.3005721229485566e-02  2.3591781514701718e-02  2.3524969374495729e-02  2.2402971522882401e-02  2.2943129278581297e-02  2.2909285796334562e-02  2.1589085128048621e-02  2.1567981097019729e-02  2.1802866050571412e-02  2.2005858467976373e-02  2.2005075576796044e-02  2.1785581965567756e-02  2.1531557159365149e-02  2.1978664895805487e-02  2.2128266094373371e-02  2.1923285173929337e-02  2.2078811286206618e-02  3.5296350347742589e-02  3.5034217174057511e-02  3.4414698887511995e-02  3.4085692346336467e-02  2.3696748213221971e-02  2.3732352596943770e-02  2.3697826083741436e-02  2.3710927042043743e-02  2.1845926601275642e-02  2.0705429366783108e-02  2.0219413945721298e-02  2.0492892542876139e-02  2.0455397305037010e-02  2.1309428953447659e-02  2.3574285732637978e-02  2.3610143158040661e-02  2.3606058718892455e-02  2.3534582064649697e-02  2.3539045913378829e-02  2.3616649895013064e-02  2.3616095450669006e-02  2.3534683487115501e-02  2.3671970210508722e-02  2.3677392415442790e-02  2.3436333969950023e-02  2.2005500379794873e-02  2.2036819608778430e-02  2.2093756164364951e-02  2.2021552378519924e-02  2.2122947676485968e-02  2.2191032574250900e-02  2.2238364945595959e-02  2.2149977732724181e-02  2.2266891478020322e-02  2.2305586294782378e-02  2.1848233317038671e-02  2.0887018572562227e-02  2.1129531553416649e-02  1.8664206913037124e-02  1.8773520539094909e-02  1.8697999628920631e-02  1.8860610351639415e-02  1.8791482935472847e-02  1.8978998661090974e-02  1.8999382134703608e-02  1.9221948382688668e-02  1.7418165449625593e-02  1.9164705536552879e-02  1.8535232889196240e-02  1.8630031825233810e-02  1.8012433022718252e-02  1.7988353235582375e-02  2.1748072511647232e-02  2.2046274198542031e-02  2.1662253908669715e-02  2.1198883652806588e-02  2.1492298929174355e-02  2.1698712637587395e-02  2.1872056587621404e-02  2.2053918279051721e-02  2.2192813066245341e-02  2.2332230564051370e-02  2.2441993555122143e-02  2.2485293582196517e-02  2.2345190171174562e-02  2.2307525801480585e-02  2.2285513254398689e-02  2.2239947504963942e-02  2.2281688902498951e-02  2.2490679914755687e-02  2.2525995883511542e-02  2.2460193398869708e-02  2.2430787171307403e-02  2.2708867370737261e-02  2.2726897965609106e-02  2.2666541210671055e-02  2.2761755231704789e-02  2.2577549576763341e-02  2.2657636616510407e-02  2.2651361574817022e-02  2.2607042794223105e-02  2.2563626674901940e-02  2.2574659829554748e-02  2.2494002225067034e-02  2.2991264195123155e-02  2.2985483557267851e-02  2.2975926008139594e-02  2.2922149245928808e-02  2.3040099748168362e-02  2.3049941707101125e-02  2.2961350971173605e-02  2.2942190857653245e-02  2.2897832163967562e-02  3.5915659666025807e-02  3.6390533227270414e-02  3.6662241471346446e-02  3.1645092307552969e-02  3.2728658236581297e-02  3.2349882684615416e-02  2.5422491064397229e-02  2.4876600135611292e-02  2.4211319245539070e-02  2.4064381657822688e-02  3.7665501086953976e-02  3.7683502890485672e-02  3.7065880502094806e-02  3.6942178530002798e-02  3.7620555834598127e-02  3.7550954000444649e-02  3.3685895669423926e-02  3.3057942341142822e-02  3.2631016765090039e-02  3.1939374938960256e-02  3.6127416607528842e-02  3.6749334327154617e-02  3.6288146451479049e-02  3.6211535119027687e-02  3.5677547315163441e-02  3.5262014767863295e-02  3.5886078190568764e-02  3.4871241941235184e-02  3.4640940282190315e-02  3.3865427709894889e-02  3.3727042865946466e-02  3.4650423671198909e-02  3.4062401381683836e-02  3.5139175582302354e-02  1.9618500582707171e-02  2.0044275177291359e-02  1.9447597845920397e-02  1.8944083432050923e-02  1.9537069727844927e-02  2.2391813885111998e-02  2.1677000952534026e-02  2.1977314767428029e-02  2.1423399460304381e-02  1.9448876593913450e-02  2.0800799394495795e-02  2.0524044138528048e-02  2.0587268144377880e-02  2.1131774576420074e-02  2.0846163957319194e-02  2.1239685412992929e-02  2.1042842156044794e-02  2.0910102986732508e-02  2.1095386962254766e-02  1.5327257536966902e-02  1.5021612939055250e-02  1.5072438547096754e-02  1.6013112347436281e-02  1.6561562035450519e-02  1.6205612316507193e-02  1.8686966530983343e-02  1.8207877029806026e-02  1.9866230299292267e-02  2.0394770356441279e-02  2.0582008773945400e-02  2.0230046976115770e-02  2.0400059144536110e-02  2.0175876784155757e-02  2.0561374467916723e-02  1.9205766661752430e-02  1.9123710765949223e-02  1.9589237387284963e-02  1.8664511862815831e-02  1.9906599801209117e-02  2.0051147592695127e-02  1.9782148051366941e-02  2.0511396832038377e-02  1.9752828598794202e-02  1.9328094661556421e-02  1.9486561568493821e-02  2.4423297627988477e-02  2.4246220090038843e-02  2.4373189609105284e-02  2.4159038735248106e-02  2.3610130354808866e-02  2.3553545511681543e-02  2.3857565452453273e-02  2.3901668364372755e-02  2.3899778315897249e-02  2.4481864529336091e-02  2.4275347124111182e-02  2.3639485485849439e-02  2.4176941906826621e-02  2.4378014684585215e-02  2.3584904020320790e-02  2.3843266491871247e-02  2.4106655287250929e-02  2.4667765071181350e-02  3.2837595739831360e-02  3.2483372720582340e-02  3.3511968704877146e-02  3.1868645208404905e-02  3.2148029263020218e-02  2.6716638729544669e-02  2.6087243305012706e-02  2.6281588368699559e-02  2.5151988094809140e-02  2.4989289732129299e-02  2.5194648073141222e-02  2.4260999338965840e-02  2.4402711908929044e-02  2.4508529915371405e-02  1.9547179105939724e-02  2.0353682490061267e-02  1.9945916649723158e-02  1.9148208170750539e-02  1.9565202530419667e-02  2.0172227795862765e-02  1.3206139421790414e-03  1.6734564184712822e-03  1.1581790703735148e-03  1.9389570969983450e-03  8.1770198100851454e-04  2.0167978043753171e-03  1.8605398482445593e-03  1.4591833659607922e-03  1.5250730968586802e-02  1.5725973909863276e-02  1.6122500532850404e-02  1.8470601102525012e-02  1.8113283027434021e-02  1.8772025815285063e-02  1.8436599992737338e-02  2.0855116056546885e-02  2.0367875113957681e-02  2.0682370077141625e-02  2.2651126317872534e-02  2.2589268315342428e-02  2.2665925584172186e-02  1.4587479513357163e-02  1.4870298274035038e-02  1.5166436140008059e-02  1.3374976947054511e-02  1.3820586471405810e-02  1.3085374545070312e-02  1.2290088156357102e-02  1.2789026861824294e-02  2.0002248433450363e-02  1.8849758232448961e-02  1.9506263368289277e-02  1.8272209609570749e-02  1.4700084183625787e-02  1.4565838329692656e-02  1.5035995076032867e-02  1.4786744159223039e-02  1.4435374209528864e-02  1.4472132536712035e-02  1.4824346958874562e-02  1.5192573593256809e-02  1.4785065573057487e-02  1.4586512696577982e-02  1.4267107828218828e-02  1.4871979315010008e-02  1.4061520410438906e-02  2.1026226401098542e-02  2.0482101493297766e-02  2.1040616020498299e-02  2.2948696617488822e-02  2.2383840612031601e-02  2.2308228300372157e-02  1.7828636536295624e-02  1.7552727510542501e-02  1.6553091614030103e-02  1.6284058913461116e-02  1.9302679875165454e-02  1.8803716346149663e-02  1.7327403266250211e-02  1.8288534087033625e-02  1.9322346974020268e-02  2.0208588480535021e-02  2.1419705363956987e-02  2.2015323060194776e-02  2.1268710265903032e-02  2.0760447538944106e-02  2.0498646702299169e-02  1.4475024849908910e-03  8.8473820410024662e-04  2.1490218666399899e-03  2.1966341495621780e-03  2.9987509386755692e-03  1.0418803590869288e-03  3.9744431653590540e-04  5.8461799238095080e-04  1.5489431219888744e-04  2.2797991771675612e-02  2.2816900011099234e-02  2.2863113591935040e-02  2.2832922314526119e-02  2.2923836777478182e-02  2.3014780430376837e-02  2.3056259914946121e-02  2.3114219444239800e-02  2.3123948188974154e-02  2.3122248954519729e-02  2.3106766848434601e-02  2.3189854011943022e-02  2.2559311153861235e-02  2.2630641767373273e-02  2.2562881399778564e-02  2.2488908713382529e-02  2.2763629624738376e-02  2.2823883780106274e-02  2.2816714571293417e-02  2.2867428414370328e-02  2.2859824947029692e-02  2.2903636061970538e-02  2.3012799655066783e-02  2.3251659544451270e-02  2.3175060259258591e-02  2.3202491460509574e-02  2.3101404585595738e-02  2.3166333645409723e-02  2.3344852399028851e-02  2.3335903239380971e-02  2.1803366158973578e-02  2.1751989080631341e-02  2.1630891728411712e-02  2.1705967588975660e-02  2.1623756341356708e-02  2.0524566759628323e-02  2.0747578298125777e-02  2.0802272911477002e-02  2.0075598129590332e-02  1.9916569443914161e-02  2.0056955588918172e-02  1.7756594409649711e-02  1.7267854079284155e-02  1.6948075282510293e-02  2.2995131484705916e-02  1.8624356819006413e-02  1.8424622020618335e-02  1.9081835552522367e-02  3.3089531230394639e-02  3.0590814684262994e-02  3.1078869226443429e-02  3.1593650539637738e-02  3.2223392482425957e-02  2.1053102554651031e-02  2.1835159847303311e-02  2.1543539149884945e-02  2.1288523709222993e-02  2.1874561935234280e-02  2.0944142213825262e-02  2.1169773654117648e-02  1.8943521529782230e-02  1.9315580888662993e-02  1.8943125276717078e-02  1.9662341981013305e-02  1.9656240873484707e-02  1.9299328499427094e-02  2.0789343463128111e-02  2.1089718979781139e-02  2.0864424851525083e-02  2.0651676723547327e-02  2.0340951626475298e-02  2.0331870510121416e-02  2.0622587299967299e-02  2.0055595644418400e-02  2.0197577432346514e-02  1.9787049540177553e-02  1.9332366609440554e-02  1.9498255236937129e-02  1.9048883416487205e-02  1.9989686961503904e-02  2.0531112000891454e-02  2.0167620076349237e-02  1.9510690740409405e-02  1.9873550982496598e-02  8.8281645158924914e-03  7.8137637293594561e-03  8.1803996495958577e-03  1.5332404184662796e-02  1.5729685531865007e-02  1.6188922597580986e-02  1.5693019457174776e-02  8.0304398778715189e-03  7.4319785860729043e-03  8.3712768342999212e-03  7.1210568819049420e-03  7.7947303852949935e-03  8.7272795048505200e-03  1.7976247347392494e-02  1.8613801644363267e-02  1.8027115238261317e-02  1.7327279153677922e-02  1.7926177526197930e-02  1.6061437032548153e-02  1.6030406570939713e-02  1.5352957727628045e-02  1.7359899117873057e-02  1.6696644039959664e-02  8.9337295034134200e-03  7.9251423160125664e-03  8.6850197022141570e-03  8.2371106125336269e-03  9.2837537113656318e-03  9.9782687193408909e-03  6.8111156982533609e-03  7.6285517928125143e-03  6.8472690410248602e-03  1.1063735708632269e-02  1.1940662054263012e-02  1.0871614463784460e-02  6.8455078423363437e-03  7.5581387261692834e-03  2.2910297215698580e-02  2.1589543343098531e-02  2.1882012691057572e-02  2.1700083723718268e-02  2.1371218991650828e-02  2.2704199482148760e-02  2.2499600534318064e-02  2.2076056217906554e-02  2.2550268854861916e-02  2.2187066626463806e-02  2.1799378427176101e-02  2.2580504857669464e-02  2.2445847735847631e-02  2.2434421740513154e-02  2.2296533496194398e-02  2.2012454016913981e-02  2.1751069640706486e-02  2.1799929592122586e-02  2.1443483189299766e-02  2.1675874434286771e-02  2.2708340259577672e-02  2.2701757237496525e-02  2.1747944227462693e-02  2.2162546135835244e-02  3.3430065665301489e-02  2.3715344627970415e-02  2.3758074201487539e-02  2.3792669284510824e-02  2.3828738757109249e-02  2.3725716275113402e-02  2.3803145302605029e-02  2.3732607626859990e-02  2.3619087581079942e-02  2.3630709519294926e-02  2.3595515384965578e-02  2.3584582928072043e-02  2.3604908942186163e-02  2.3628472686509285e-02  2.3481613374976708e-02  2.3465313785109833e-02  2.3393320252739363e-02  2.3545718205099944e-02  2.3357541440954546e-02  2.3437622852545706e-02  2.3289279603315206e-02  2.3336399527057402e-02  1.9942005984366882e-02  1.9659326968063828e-02  1.9376899549379947e-02  2.0858479384080489e-02  2.0666757307751506e-02  2.1082167658923491e-02  2.1294997836428832e-02  2.1442104756658038e-02  2.0903799748636317e-02  2.1015693607563259e-02  2.0683255149273098e-02  2.0912356043030551e-02  1.4947880712599216e-02  1.4443985205162699e-02  1.5113791520931067e-02  1.8017011960850079e-02  1.8297349081464947e-02  1.8557214055761603e-02  2.3657099673896561e-02  2.3918754792870534e-02  2.3922265479550450e-02  2.3633060494631111e-02  2.3595940954954278e-02  2.3555147579662115e-02  2.3654186671679373e-02  2.3643359864461113e-02  2.3617172573946941e-02  2.3967051289126347e-02  2.3945864738943522e-02  2.3417604971806616e-02  2.3449119119425117e-02  2.3987215261318286e-02  2.3342626728602933e-02  2.3355845245869505e-02  2.3371762520884659e-02  2.3947146806933675e-02  2.3551878753715165e-02  2.3962372251114743e-02  2.3958414199211069e-02  2.3485257142483965e-02  2.3422726569533717e-02  2.3414199052922871e-02  2.3443385624493468e-02  2.3729515184945902e-02  2.3723431013070423e-02  2.3708885814138422e-02  2.3694981370743027e-02  2.2707701848659199e-02  2.2716262251651208e-02  2.2466181095474547e-02  2.2708211928778321e-02  2.2929684955273841e-02  2.3677048239322308e-02  2.3606948459676320e-02  2.3522356366823705e-02  2.3113490315362369e-02  2.2923137075104717e-02  2.2943614514743693e-02  2.3136070410495604e-02  2.2935702930131911e-02  2.3124009649836231e-02  2.3290746762401046e-02  2.3429159644367932e-02  2.3414245381530890e-02  2.3307010920931077e-02  2.3435935549514692e-02  2.2419351399720594e-02  2.2305206936331430e-02  2.2399627043954956e-02  1.3769136493160784e-02  1.4192609593734765e-02  1.3308871086623035e-02  2.2416395129873624e-02  2.2433616854024965e-02  2.2182337358283455e-02  2.1979389750490526e-02  1.8853238648561400e-02  1.8868935489690673e-02  1.8436814640875550e-02  1.8873705735233084e-02  1.9233098852448834e-02  2.1364552770516191e-02  2.1745804147787703e-02  2.0014868278161055e-02  1.9956994042397910e-02  2.0145809185441191e-02  2.1076414621269482e-02  1.9641315490133038e-02  1.9284411659212963e-02  1.9556528191464445e-02  2.0389330134323091e-02  2.0697280473019476e-02  1.9025717292120707e-02  1.8873332517465251e-02  1.8934034717548155e-02  1.8813444607459897e-02  1.8836910367498211e-02  1.8764163690989450e-02  1.8827758739911590e-02  1.8896590593155207e-02  1.8923703161588919e-02  1.9011663568199482e-02  1.8564518277573595e-02  1.8698742691889557e-02  1.6566750204702163e-02  1.8912699374312853e-02  1.4968460012910304e-02  1.5110854720334372e-02  1.5260661346510114e-02  1.5075272345127847e-02  1.7984056746647815e-02  1.7427963497652101e-02  1.7300201694655824e-02  1.5938194290116770e-02  1.6410258118850857e-02  1.6277819938474814e-02  1.6447551945789490e-02  1.6078115988878011e-02  1.6867817626102233e-02  1.5302637693273179e-02  1.5080001973285875e-02  1.5311425035161474e-02  1.6416743962718094e-02  1.6921985042419322e-02  1.7876152119046675e-02  2.2072589632909340e-02  2.1704061360726563e-02  2.1911615495222074e-02  2.2248021263763858e-02  2.2083491225360165e-02  1.3782460986020362e-02  1.4603569914417212e-02  2.2359228748417774e-02  2.2484971833694009e-02  2.2163258354090644e-02  2.2745344466449838e-02  2.2728811150322482e-02  2.2723527443336923e-02  2.2495777695493768e-02  2.2570620332528074e-02  2.2597067886677563e-02  2.1437508984619845e-02  2.2341888956656127e-02  2.2195493126514435e-02  2.2459702405977895e-02  2.2373240732013626e-02  2.2353713324992731e-02  2.2450031116553946e-02  2.2429845921743977e-02  2.2483047175655961e-02  2.2215976027455047e-02  2.2184735503985132e-02  2.2137869569086630e-02  2.2167076778958607e-02  2.2120149012502224e-02  2.2644618137616666e-02  2.2635056883273476e-02  2.2703497015991940e-02  2.2746824212504950e-02  2.2664053174214473e-02  2.2666082078482100e-02  2.2702881621764613e-02  2.1698095601724983e-02  2.1737040810147913e-02  2.1610192910588445e-02  2.1812219832047258e-02  2.1883704718240443e-02  2.1949438480497067e-02  2.1979521242047332e-02  2.2285358521882462e-02  2.2333278785671058e-02  2.2250209690037940e-02  2.2199911463571753e-02  2.2160491183563620e-02  2.2108146524436142e-02  2.2239946693287504e-02  2.2217688974162448e-02  2.2062604816227196e-02  2.1956068326068674e-02  2.2008171846970983e-02  2.1478506112888249e-02  2.1576374303231602e-02  2.1668237561063928e-02  2.2353341111178961e-02  2.2386578633554803e-02  2.2594322415310161e-02  2.0196629373879720e-02  2.0104373755401878e-02  2.0098582166710906e-02  2.0185070154794777e-02  2.2412890856340656e-02  2.2417914607362636e-02  2.2344057367981632e-02  2.2333875060038109e-02  2.2258381784998463e-02  2.2361166345055236e-02  2.2422793604107823e-02  2.2018137552371427e-02  2.1902730108021323e-02  2.1848320158696921e-02  2.1791052041082039e-02  2.1706464316495703e-02  2.2244639546459846e-02  2.2163570460375731e-02  2.2087815290841653e-02  2.2054718318293913e-02  2.2509835147661479e-02  2.2578071929249648e-02  2.2557992237297222e-02  2.2535968150043044e-02  2.2610405931419726e-02  2.2857449260445202e-02  2.2788588867582664e-02  2.2798667419741375e-02  2.2638215914818783e-02  2.2574215023357547e-02  2.2704290815106838e-02  2.2726616506113122e-02  2.2864624754018167e-02  2.2768666004052598e-02  2.2834115113428768e-02  2.2776621167152233e-02  2.2882431058423566e-02  2.3055777521205807e-02  2.3125037052840903e-02  2.2990577531497282e-02  2.3025121209484141e-02  2.3090803845135691e-02  2.3070241137868326e-02  3.5772889413064946e-02  3.620071929