<?xml version="1.0"?>
<VTKFile type="UnstructuredGrid"  version="0.1"  >
<UnstructuredGrid>
<Piece  NumberOfPoints="6340" NumberOfCells="12376">
<Points>
<DataArray  type="Float64"  NumberOfComponents="3"  format="ascii">-0.0195080004632473 0.02070399932563305 0  -0.02029399946331978 0.02140199951827526 0  -0.02050000056624413 0.02040000073611736 0  -0.02114699967205524 0.02122600004076958 0  -0.01972199976444244 0.01978000067174435 0  -0.01937099918723106 0.02158600091934204 0  -0.01995600014925003 0.02236399985849857 0  -0.01947700046002865 0.02316799946129322 0  -0.02050900086760521 0.02318399958312511 0  -0.01889399997889996 0.02230500057339668 0  -0.007782000117003918 0.01814199984073639 0  -0.008472999557852745 0.01897599920630455 0  -0.008798999711871147 0.01803600043058395 0  -0.009496999904513359 0.01890899986028671 0  -0.02616900019347668 0.07804299890995026 0  -0.02710499987006187 0.07856699824333191 0  -0.02729500085115433 0.07778000086545944 0  -0.02674500085413456 0.0714389979839325 0  -0.02738199941813946 0.07222999632358551 0  -0.02758100070059299 0.07134000211954117 0  -0.02833000011742115 0.0718500018119812 0  -0.01225799974054098 0.08859200030565262 0  -0.01315100025385618 0.08856400102376938 0  -0.01261099986732006 0.08782000094652176 0  -0.01988900080323219 0.08356299996376038 0  -0.01887300051748753 0.08362500369548798 0  -0.01933199912309647 0.0843999981880188 0  -0.01943299919366837 0.08278200030326843 0  -0.0224360004067421 0.02489800006151199 0  -0.02148599922657013 0.02489399909973145 0  -0.0219310000538826 0.02576600015163422 0  -0.02232999913394451 0.02664200030267239 0  -0.02289899997413158 0.02578300051391125 0  -0.02097300067543983 0.02576700039207935 0  -0.02050199918448925 0.02488400042057037 0  -0.01950000040233135 0.02486800029873848 0  -0.01998800039291382 0.02574699930846691 0  -0.02198499999940395 0.02400399930775166 0  -0.0230260007083416 0.02407200075685978 0  -0.02233999967575073 0.022749999538064 0  -0.02175999991595745 0.02201000042259693 0  -0.02150099910795689 0.02310499921441078 0  -0.02089600078761578 0.0222609993070364 0  -0.0159779991954565 0.02195299975574017 0  -0.01649600081145763 0.02107100002467632 0  -0.01543799974024296 0.02106899954378605 0  -0.01696399971842766 0.02205199934542179 0  -0.01797400042414665 0.02208700031042099 0  -0.0174770001322031 0.0229640007019043 0  0.03889700025320053 0.08122599869966507 0  0.03871899843215942 0.08034700155258179 0  0.03989300131797791 0.08058200031518936 0  0.04029899835586548 0.09213300049304962 0  0.04099800065159798 0.09246999770402908 0  0.03999200090765953 0.09297800064086914 0  0.02380900084972382 0.1011509969830513 0  0.02399099990725517 0.100271999835968 0  0.02479800023138523 0.1006520017981529 0  0.02289899997413158 0.101611003279686 0  0.02308000065386295 0.1005460023880005 0  -0.007172999903559685 0.09636600315570831 0  -0.006266000214964151 0.09648700058460236 0  -0.0068660001270473 0.0972139984369278 0  -0.005946999881416559 0.09734199941158295 0  -0.01772500015795231 0.09735500067472458 0  -0.01803899928927422 0.09671200066804886 0  -0.01704799942672253 0.09680800139904022 0  -0.01862799935042858 0.09753400087356567 0  -0.01481399964541197 0.1028209999203682 0  -0.01509399991482496 0.1036359965801239 0  -0.01555799972265959 0.1029549986124039 0  -0.01072499994188547 0.09538999944925308 0  -0.00991399958729744 0.09541500359773636 0  -0.01050299964845181 0.09615600109100342 0  -0.01153500005602837 0.09537400305271149 0  -0.01094700023531914 0.0946350023150444 0  -0.01175700034946203 0.09461899846792221 0  -0.01410599984228611 0.09753400087356567 0  -0.01465499959886074 0.09824299812316895 0  -0.01495299953967333 0.09750500321388245 0  -0.01293899957090616 0.09609200060367584 0  -0.01377400010824203 0.09607800096273422 0  -0.01317599974572659 0.09534499794244766 0  0.0107439998537302 0.09313099831342697 0  0.01169000007212162 0.09307599812746048 0  0.01111899968236685 0.09389600157737732 0  0.007414999883621931 0.07837700098752975 0  0.007931999862194061 0.07753899693489075 0  0.0083600003272295 0.07831999659538269 0  -0.007480000145733356 0.01727000065147877 0  -0.006653000134974718 0.01750200055539608 0  -0.008359000086784363 0.01713900081813335 0  -0.009277000091969967 0.01700199954211712 0  -0.01298999972641468 0.01688000001013279 0  -0.01325900014489889 0.01795700006186962 0  -0.01387500017881393 0.01706000044941902 0  -0.01241900026798248 0.01778499968349934 0  -0.01245400030165911 0.01880900003015995 0  -0.01158499997109175 0.01797300018370152 0  -0.0120059996843338 0.02173300087451935 0  -0.01249200012534857 0.02077499963343143 0  -0.01153200026601553 0.02082899957895279 0  -0.01105200033634901 0.01998200081288815 0  -0.01049700006842613 0.02082999981939793 0  -0.01201600022614002 0.01982899941504002 0  -0.01297799963504076 0.02173699997365475 0  -0.01443600002676249 0.02094700001180172 0  -0.01495099999010563 0.0219080001115799 0  -0.01395499985665083 0.02180800028145313 0  -0.00898400042206049 0.01985899917781353 0  -0.01095400005578995 0.03071399964392185 0  -0.01146499998867512 0.02984200045466423 0  -0.01044700015336275 0.02980099990963936 0  -0.005365999881178141 0.02955899946391582 0  -0.005872000008821487 0.03048199974000454 0  -0.006378000136464834 0.02961299940943718 0  -0.008004999719560146 0.01993799954652786 0  -0.00547999981790781 0.01942799985408783 0  -0.006471999920904636 0.01924999989569187 0  -0.005681999959051609 0.01858199946582317 0  -0.005758999846875668 0.01775299943983555 0  -0.004769999999552965 0.01803000085055828 0  0.04228800162672997 0.08833800256252289 0  0.04310499876737595 0.08788499981164932 0  0.04280100017786026 0.08893900364637375 0  0.04182200133800507 0.08908399939537048 0  0.01634499989449978 0.05909600108861923 0  0.01737000048160553 0.0590130016207695 0  0.01689399965107441 0.05989800021052361 0  0.02993600070476532 0.04431800171732903 0  0.03041400015354156 0.04327699914574623 0  0.03086899966001511 0.04400699958205223 0  0.03192099928855896 0.04849100112915039 0  0.0328189991414547 0.04782500118017197 0  0.03312399983406067 0.04855599999427795 0  0.03155900165438652 0.05187299847602844 0  0.03064800053834915 0.05196399986743927 0  0.03119100071489811 0.05104300007224083 0  0.03079799935221672 0.05023999884724617 0  0.03177500143647194 0.05012499913573265 0  0.03024099953472614 0.05114800110459328 0  0.02970699965953827 0.05205700173974037 0  0.02980400063097477 0.05036899819970131 0  0.02930100075900555 0.04960799962282181 0  0.02880199998617172 0.05048099905252457 0  0.02827999927103519 0.04970499873161316 0  0.03979299962520599 0.09063299745321274 0  0.03881200030446053 0.09069299697875977 0  0.03939399868249893 0.08988600224256516 0  0.03843500092625618 0.08991499990224838 0  0.008364000357687473 0.02478400059044361 0  0.009122000075876713 0.02525199949741364 0  0.008364999666810036 0.02584899961948395 0  0.009192000143229961 0.02621199935674667 0  0.02779100090265274 0.0505790002644062 0  0.02378600090742111 0.05259200185537338 0  0.02330500073730946 0.05347400158643723 0  0.02276399917900562 0.0526680015027523 0  0.02431700006127357 0.05339600145816803 0  0.03013800084590912 0.05286800116300583 0  0.019208999350667 0.03579400107264519 0  0.01832799986004829 0.03564599901437759 0  0.01875099912285805 0.03476300090551376 0  0.01369099970906973 0.04096600040793419 0  0.01274800021201372 0.0409649983048439 0  0.01322000008076429 0.04008200019598007 0  0.01227600034326315 0.04008200019598007 0  0.01180399954319 0.04096399992704391 0  0.01180300023406744 0.03920000046491623 0  0.01274900045245886 0.03920099884271622 0  0.01321899984031916 0.04184800013899803 0  -0.02820800058543682 0.07271300256252289 0  -0.02709599956870079 0.07304699718952179 0  -0.0280969999730587 0.07350199669599533 0  -0.02640599943697453 0.07232499867677689 0  -0.02601700089871883 0.07314500212669373 0  -0.02497199922800064 0.07324600219726562 0  -0.02545999921858311 0.07400500029325485 0  -0.02438499964773655 0.07249800115823746 0  -0.02394800074398518 0.0733330026268959 0  -0.0244740005582571 0.07409100234508514 0  -0.02841000072658062 0.07095299661159515 0  -0.01878000050783157 0.08522599935531616 0  -0.01978800073266029 0.08517199754714966 0  -0.01792199909687042 0.09372500330209732 0  -0.01881499961018562 0.09373600035905838 0  -0.01825300045311451 0.09298399835824966 0  -0.01914200000464916 0.09299899637699127 0  -0.01859300024807453 0.09223800152540207 0  -0.01714899949729443 0.0960799977183342 0  -0.01632199995219707 0.09608399868011475 0  -0.01614399999380112 0.09681200236082077 0  -0.01352700032293797 0.08778399974107742 0  -0.01143100019544363 0.08166400343179703 0  -0.01041899994015694 0.08172699809074402 0  -0.01088900025933981 0.08249600231647491 0  -0.01038799993693829 0.08331099897623062 0  -0.009902000427246094 0.08254899829626083 0  -0.01559299975633621 0.07973500341176987 0  -0.01613100059330463 0.07886700332164764 0  -0.01512399967759848 0.07893899828195572 0  -0.01411699969321489 0.07901199907064438 0  -0.01463999971747398 0.07814499735832214 0  -0.01841700077056885 0.08284799754619598 0  -0.01796800084412098 0.08205600082874298 0  -0.01898499950766563 0.0819849967956543 0  -0.02000300027430058 0.08191599696874619 0  -0.02503200061619282 0.07485699653625488 0  -0.02556299977004528 0.07727000117301941 0  -0.02511700056493282 0.07812000066041946 0  -0.02338900044560432 0.02477199956774712 0  -0.02373999916017056 0.02545000053942204 0  -0.02398199960589409 0.02611899934709072 0  -0.02424300089478493 0.0268389992415905 0  -0.02326099947094917 0.02669399976730347 0  -0.02000300027430058 0.02402099967002869 0  -0.01899099908769131 0.02399300038814545 0  -0.02101800031960011 0.02401700057089329 0  -0.02267299965023994 0.0233910009264946 0  -0.01743300072848797 0.01823000051081181 0  -0.01705200038850307 0.01899500004947186 0  -0.01823999918997288 0.01860000006854534 0  -0.01660499908030033 0.01785000041127205 0  -0.01844299957156181 0.02310400083661079 0  -0.0164739
[...]
<PointData  Scalars="pressure"> 
<DataArray  type="Float64"  Name="pressure"  format="ascii">7.1492614929038970e-03  7.0278922823589062e-03  7.0806156294925798e-03  6.9787958818488312e-03  7.1922310809317321e-03  7.0998473829012795e-03  6.9968704343858490e-03  6.9955035761937942e-03  6.9161602067232472e-03  7.0975487250403615e-03  8.6968985102005916e-03  8.5767945428213456e-03  8.6486954565890787e-03  8.5143655262656451e-03  1.4625151029486055e-02  1.4704807131847868e-02  1.4578508653842854e-02  1.3529218727438848e-02  1.3605042843391020e-02  1.3452510929819222e-02  1.3554023929457920e-02  1.6280672977023188e-02  1.6423888197644825e-02  1.6071473909160337e-02  1.5893450875548241e-02  1.5920751367790975e-02  1.6027407672812882e-02  1.5800523942641569e-02  6.8196444324187967e-03  6.8414077330075616e-03  6.8463386523796056e-03  6.8788993134927968e-03  6.8361741913226578e-03  6.8749697310391648e-03  6.8843593599317490e-03  6.9415954094937306e-03  6.9156628277345263e-03  6.8270808729847966e-03  6.8110733666797360e-03  6.8464379731597771e-03  6.8938208650055361e-03  6.8610587662098037e-03  6.9317336215244142e-03  7.4614058385454023e-03  7.4775385143733743e-03  7.6168428411778934e-03  7.3301813576988825e-03  7.2098715395456092e-03  7.1998321679326571e-03  1.0884534624122940e-02  9.8637198745478594e-03  1.0731128029319565e-02  1.8001623470189434e-02  1.7928651287488044e-02  1.8280723467981982e-02  3.0750119562820630e-02  2.9134574645708421e-02  2.9554143898790637e-02  3.1927241017545432e-02  2.9919618812388589e-02  2.1504031366649676e-02  2.1780184335557215e-02  2.2295063817613824e-02  2.2615138931539484e-02  2.0286338450393016e-02  1.9952391429386075e-02  2.0172194481593325e-02  2.0198174281518315e-02  2.3794868437946953e-02  2.4119015706164683e-02  2.3603498227524021e-02  2.0220985523431136e-02  2.0323922879256478e-02  2.0801012127834924e-02  2.0125840932225407e-02  1.9659194327621872e-02  1.9596442784656609e-02  2.1063869376184662e-02  2.1349815949864119e-02  2.0889169492456571e-02  2.0417251776127607e-02  2.0293789467108039e-02  1.9940646954838617e-02  2.0155524093308862e-02  2.0166788605675234e-02  2.0964006625554910e-02  2.5419144826086260e-03  1.7172907786874268e-03  2.5648072079550548e-03  8.7720080333059686e-03  8.7905204445913616e-03  8.7413796219798952e-03  8.6901105835384164e-03  8.2712818701985488e-03  8.1898915166706224e-03  8.1436400292074582e-03  8.3050117375862275e-03  8.2251726950072993e-03  8.4014603106344638e-03  7.9686800488035555e-03  8.0209789776548510e-03  8.1191022507562192e-03  8.2612123649808307e-03  8.2185939918492778e-03  8.1771974041123848e-03  7.8584901913998501e-03  7.7614412312677489e-03  7.5963373670474132e-03  7.7320431145105391e-03  8.4487939420522760e-03  7.8322160635772037e-03  7.7134201573158118e-03  7.8214946522769287e-03  8.3274341492957510e-03  8.2834801188755094e-03  8.2391415666409305e-03  8.5090883633918597e-03  8.6863317326686239e-03  8.6654312950917856e-03  8.7427802886515839e-03  8.7957739896405585e-03  8.7850812952384120e-03  1.6489030740844485e-02  1.6714875969056991e-02  1.6704591043595507e-02  1.6763277519533635e-02  7.4826214370610072e-03  7.5626309628444750e-03  7.3909917103116944e-03  1.1780962028422229e-02  1.1741615497236544e-02  1.1884222579631586e-02  1.2213914385404631e-02  1.2241611570885491e-02  1.2320752255276346e-02  1.1940397601106122e-02  1.1838745037176255e-02  1.2031135667994833e-02  1.2073775336591387e-02  1.2163807591781445e-02  1.1916007120429308e-02  1.1698648988137286e-02  1.1943291641599248e-02  1.1922230473187717e-02  1.1768644042196543e-02  1.1730708350817839e-02  1.7510878418998142e-02  1.7597790750024149e-02  1.7149524621463845e-02  1.7172243395069328e-02  8.5442925613428231e-03  8.5319537208931179e-03  8.4908352043990155e-03  8.4776087316605561e-03  1.1548767649084704e-02  1.0053976932879509e-02  9.7221647915181949e-03  9.7261244579979530e-03  1.0051791994085029e-02  1.1590828581538532e-02  9.7281252379277025e-03  9.6313306708970467e-03  9.5822922022210360e-03  9.2017704571958712e-03  9.0700854127656692e-03  9.1496434826829707e-03  9.0241054373068029e-03  8.9495307261565609e-03  8.9707163748676041e-03  9.0947937079410776e-03  9.1082663436904115e-03  1.3714147293132178e-02  1.3777978058262112e-02  1.3864667500938486e-02  1.3710451977961158e-02  1.3882187010113907e-02  1.3986115007406881e-02  1.4071660886455683e-02  1.3907074430467571e-02  1.4096709751580686e-02  1.4180902120458090e-02  1.3430974137086545e-02  1.6158474761124728e-02  1.6134130847718180e-02  1.8687752152100476e-02  1.8606570909319563e-02  1.8368617280482676e-02  1.8297746261445657e-02  1.8056516112373282e-02  1.9819927416471199e-02  1.9947292539969557e-02  2.0325668832539091e-02  1.6229724170110475e-02  1.3927381867283279e-02  1.3455918725635400e-02  1.3963330561563563e-02  1.4030289347936676e-02  1.3513436732181154e-02  1.5013302365217356e-02  1.4973233119776575e-02  1.4711470972366312e-02  1.4362936773690233e-02  1.4339187227176798e-02  1.5815190650449874e-02  1.5695431578015982e-02  1.5702288662043089e-02  1.5665034208081869e-02  1.4251317623367605e-02  1.4574956445298316e-02  1.4735139463024934e-02  6.8128419266184469e-03  6.8353191894997278e-03  6.8700482430512095e-03  6.9249529608185253e-03  6.8817596659948507e-03  6.9250236774004784e-03  6.9998703443543090e-03  6.8640787956912343e-03  6.8244046592822460e-03  7.5728895452952770e-03  7.5864859131284015e-03  7.4466907884485154e-03  7.7185879378458937e-03  7.0912376871054214e-03  7.3168307835357604e-03  7.3061861979085100e-03  7.1943373260120336e-03  7.7329667074321241e-03  7.8734570349633486e-03  7.7861022087828032e-03  8.0714549467575721e-03  7.9959004323757275e-03  7.9893358080115485e-03  7.8718785952352731e-03  8.1051796100272463e-03  8.1244377187844989e-03  8.0069208283902842e-03  8.0418653491886958e-03  7.9109060924318145e-03  1.7147309845854466e-02  1.7010702288849773e-02  1.7326564045323727e-02  1.5693155212541447e-02  1.6252700477544756e-02  1.6187675437875360e-02  1.2734708200371633e-02  1.2715258397510133e-02  1.2035436331131175e-02  9.7274299017097825e-03  1.9032146358351747e-02  1.9437544579627753e-02  1.9024119278552954e-02  1.8646525008837157e-02  1.8767523063662264e-02  1.8524440574899274e-02  1.7181726270143825e-02  1.6681847893005239e-02  1.6654218665267152e-02  1.6123050852262594e-02  1.7812518473416673e-02  1.8255801976977359e-02  1.8300339183185511e-02  1.8566328667465347e-02  1.8599873642179288e-02  1.8155568507188836e-02  1.7928055892628747e-02  3.4403463185646223e-02  3.5551772696587255e-02  3.3668517777206072e-02  2.9852352682567446e-02  3.1306594464324718e-02  3.1501402110407167e-02  3.3144166916747042e-02  2.1100296351006711e-02  2.1564439094924722e-02  2.0942064744305766e-02  2.0438223032489714e-02  2.0941277287172308e-02  2.4555777027798497e-02  2.3411113166909019e-02  2.3991215728619293e-02  2.3087700973293043e-02  2.0567842669421417e-02  2.2773217051901017e-02  2.2280965764097212e-02  2.2499014343904493e-02  2.3152515559892527e-02  2.2836807521774388e-02  2.3334176401664946e-02  2.3082291425216252e-02  2.2835601192493143e-02  2.3074349117161323e-02  1.6855182483294998e-02  1.6345909816066224e-02  1.6275997688370757e-02  1.7587419799062701e-02  1.8101139159068462e-02  1.7645666661332625e-02  1.9847159451097184e-02  1.9721908291761882e-02  2.1387290013848911e-02  2.1983190435251203e-02  2.2342431760724032e-02  2.1832319210042632e-02  2.2053460899405054e-02  2.1749309062038515e-02  2.2263333348236925e-02  2.0668950465332129e-02  2.0542464077647364e-02  2.1063141360447638e-02  2.0032453970680097e-02  2.1420310446956921e-02  2.1603753068833376e-02  2.1241497402589855e-02  2.2320964345510216e-02  2.1156623225904812e-02  2.0604950042352077e-02  2.0907653138184379e-02  3.0294364208037262e-02  2.9379644507568390e-02  2.9757796296617352e-02  2.8794987152761933e-02  2.7288562717480730e-02  2.6986617386863074e-02  2.8056686527138108e-02  2.8307493030771305e-02  3.7647670714592886e-02  3.7477563665511582e-02  3.8451303157014713e-02  3.6825190447666689e-02  3.6883879543238005e-02  3.5406680430571741e-02  3.6065887589140852e-02  3.5369456081690856e-02  3.6104177917032992e-02  3.5424024130204762e-02  4.0113605741347966e-02  3.8156357175429853e-02  3.9076861891876660e-02  3.9173453195305685e-02  4.0945377478038267e-02  4.1613205329338772e-02  4.0960784003654258e-02  4.0345279434608333e-02  3.3681177117014655e-02  3.2602588412377329e-02  3.3039348846953351e-02  2.9125262493011554e-02  2.9429079903878864e-02  3.0122266901631552e-02  1.7947883027085644e-02  1.8641707077643711e-02  1.8670720800075723e-02  1.7972934577381749e-02  1.8691327388476928e-02  1.9400895861233346e-02  1.0637809163214634e-03  5.5343690282409763e-04  6.9742298207329037e-04  9.9703347887458715e-04  1.1920927649051484e-03  2.1032602536899432e-03  2.1567387235810372e-03  1.7510465310996252e-03  7.6640339637836976e-03  7.7311024065096403e-03  7.8531460939847888e-03  9.0810456819720841e-03  8.8415747675154484e-03  9.1982280192835775e-03  8.9405490132950238e-03  9.4314125017198411e-03  9.1664302094545125e-03  9.1932667673654614e-03  7.9579401685894967e-03  8.0173656378208207e-03  8.0835204735996598e-03  7.3810296254664624e-03  7.5200383372539623e-03  7.7688781340557421e-03  6.7984046296750804e-03  7.1230792989069279e-03  6.7504596046976343e-03  6.3598372823245059e-03  6.7222755114141001e-03  1.7910784995806873e-02  1.6431158365954015e-02  1.7175801194683447e-02  1.6484581766006902e-02  6.7650803977876116e-03  6.7393497598502265e-03  6.9975741647638878e-03  6.7632070509689151e-03  6.5053385209811257e-03  6.4792230537638502e-03  6.7269306859242105e-03  7.0608314698952096e-03  6.6959664573628935e-03  6.0883776829547473e-03  6.1025223652951457e-03  6.6007874818344390e-03  5.6826162797667425e-03  2.2773647679012646e-02  2.1831734284777311e-02  2.2778672935894084e-02  2.5903562422582682e-02  2.4787023835055995e-02  2.4839951334709131e-02  1.7301282851632311e-02  1.7305987187967452e-02  1.6605970051859167e-02  1.6612407303882335e-02  1.8700402296924198e-02  1.7991177210885837e-02  1.7307140575336860e-02  1.7995852681868103e-02  1.9408905897713023e-02  2.0970851323308833e-02  2.2751202427919344e-02  2.3778123030352840e-02  2.2763736530183473e-02  2.1826911648337305e-02  2.1836550611778562e-02  3.5216748871435225e-03  2.6441163725580662e-03  3.4944017438191689e-03  4.5428228346227860e-03  4.5604614701516208e-03  1.7734487899161572e-03  4.9002917726774717e-03  4.7542435816402065e-03  3.8770609697955476e-03  7.7816131851243253e-03  7.8648663950605050e-03  8.0003243318604485e-03  7.9075369687916439e-03  8.0665513192368435e-03  8.3842995170027371e-03  8.5044662850523988e-03  8.3913687196259246e-03  8.4657057074348559e-03  8.5200185801231187e-03  8.6114892283833018e-03  8.5912868316720126e-03  7.6085735182109919e-03  7.6089291220114499e-03  7.5018657999016379e-03  7.5116316404726484e-03  7.8414504760046678e-03  7.8886913998632152e-03  7.9592490061159375e-03  8.0148934672576617e-03  8.0781647009313742e-03  8.1393602057535999e-03  8.3541986382972815e-03  8.5627318817307757e-03  8.5250135796679817e-03  8.5155984367148042e-03  8.4766009469195002e-03  8.5308927452508680e-03  8.6262579968365855e-03  8.5651575595384662e-03  1.3321695475692202e-02  1.3279920441352108e-02  1.2994666887403162e-02  1.3113748581020011e-02  1.2971008476041946e-02  9.3277547094113948e-03  9.3009390043254474e-03  9.2504973826995230e-03  9.3166375413731937e-03  9.3442457744918606e-03  9.2782893952362919e-03  9.2000809106972531e-03  8.8791867997466394e-03  8.7282241367306491e-03  8.9172312664128704e-03  9.7965072704436600e-03  9.7927356701536534e-03  1.0166657703846827e-02  1.6170775221327725e-02  1.4858439009012746e-02  1.5281224826860508e-02  1.5414397563074417e-02  1.5880900421119646e-02  1.1645945444977209e-02  1.1952595572183531e-02  1.1765290526036930e-02  1.1819485894489071e-02  1.1986444169340037e-02  1.1549059446614971e-02  1.1691326998792051e-02  9.7645399450061680e-03  1.0141858332079392e-02  9.9320921964385165e-03  1.0471348282920515e-02  1.0340425392831403e-02  1.0296697422676995e-02  1.1137285328321934e-02  1.1452133969169699e-02  1.1288173787712564e-02  1.1242840370582553e-02  1.1022771304757739e-02  1.0897645301626459e-02  1.1108663205158300e-02  1.0400590082861169e-02  1.0588704050766621e-02  1.0205967957836895e-02  9.8125055892287934e-03  1.0004927513015701e-02  9.6171396977373196e-03  1.0924528982819450e-02  1.1096615139993358e-02  1.0886168686514684e-02  1.0422480805719527e-02  1.0748674227509674e-02  5.8841700432119108e-03  5.4963757339458394e-03  5.7058212229347625e-03  7.7349705162517626e-03  7.8509590230892400e-03  8.0061059567237795e-03  7.7918578167815358e-03  4.7326453189897744e-03  4.1683750689512616e-03  4.6342876422381697e-03  4.2852788370835344e-03  4.8697530920106934e-03  5.2785875091275192e-03  8.3280951914438978e-03  8.3694411472015062e-03  8.3012650678620063e-03  8.2722900867185003e-03  8.3677928394994116e-03  8.0301738103482588e-03  8.0038955236342614e-03  7.8367225063455635e-03  8.2414808594186654e-03  8.1501008332734715e-03  6.0715111741503885e-03  5.6221368959824096e-03  5.8984390183984634e-03  5.8203345399192655e-03  6.2306585588091639e-03  6.4567423253915346e-03  4.6539767578775166e-03  5.2143851172723448e-03  4.8756693947130461e-03  7.3100391752093444e-03  7.9898000313861853e-03  7.8990810562496860e-03  5.0658167096887842e-03  5.3128140123362717e-03  1.1903854732667838e-02  1.2011245618261585e-02  1.2178074930352743e-02  1.2091592070527048e-02  1.1811233462537755e-02  1.2310486157596948e-02  1.2308369740124623e-02  1.2221847664915665e-02  1.2131300979571234e-02  1.2172355971695970e-02  1.2113443760661136e-02  1.1957438271241336e-02  1.2050423222640459e-02  1.1929556028919659e-02  1.2018093014260411e-02  1.1500805275550398e-02  1.1286716912079699e-02  1.0246422287622587e-02  9.9872404154653181e-03  9.9583367215277750e-03  1.1846594453116739e-02  1.1957366843284696e-02  1.1758666817502754e-02  1.2067934353570099e-02  1.6705045301101042e-02  8.5009500175803714e-03  8.5066318668660310e-03  8.5424329185427739e-03  8.6070575942231442e-03  8.5561419359613724e-03  8.5408989273834755e-03  8.5087315307714514e-03  8.4402657463950696e-03  8.4348650954420862e-03  8.4599846536193603e-03  8.4631603732748320e-03  8.4493802164224731e-03  8.4351964917976745e-03  8.5160973039017426e-03  8.5137262676490827e-03  8.5393485104028784e-03  8.4864369788036041e-03  8.5279385825625543e-03  8.5054765227811271e-03  8.5456465942497992e-03  8.5603412296861060e-03  9.6988763019935746e-03  9.6512233257160171e-03  9.3413757330594715e-03  1.0693089427355158e-02  1.0377041714498124e-02  1.0719108098598520e-02  1.0711954015428186e-02  1.1023328022201875e-02  1.0394299216482831e-02  1.1298002781697946e-02  1.0955694462727591e-02  1.1105868783124371e-02  7.1778176762947177e-03  7.0520016795682459e-03  7.3258298822808827e-03  8.8441161007159694e-03  9.0314557656194071e-03  9.2311551479008699e-03  9.4789242566973141e-03  9.4053577817563086e-03  9.5160319123741306e-03  9.6034260877784008e-03  9.5757390196867468e-03  9.7185523171119705e-03  9.5665401192564677e-03  9.5394363982678546e-03  9.6666354427897543e-03  1.0826566842178118e-02  1.0993315345265504e-02  1.0869311462435891e-02  1.0708516853671732e-02  1.0677764222545297e-02  1.0679578985654779e-02  1.0571429951999185e-02  1.0524482800999770e-02  1.0331795051078016e-02  1.0221616683074601e-02  1.0224571981826209e-02  1.0079871457104031e-02  1.0117459029207826e-02  1.0262445328858168e-02  1.0298658984002975e-02  1.0151601623250446e-02  8.6758245945955052e-03  8.7128801754754476e-03  8.6257774057612504e-03  8.6618012563977644e-03  9.2959783552868554e-03  9.4593582538223444e-03  9.2904376417134275e-03  9.1526435929893558e-03  9.2996017653200098e-03  9.4515620181962415e-03  9.2900177856654696e-03  9.3436502910581015e-03  9.4416027468644682e-03  9.4546933024004867e-03  9.0326639856904006e-03  9.1533907807606583e-03  9.1587365629634317e-03  9.2921613579500031e-03  9.2713872050329132e-03  9.2435906508945998e-03  9.3873604261017641e-03  9.1384153397576755e-03  8.9880866566629577e-03  1.4367851551420500e-02  1.4231391445398537e-02  1.4390341595952169e-02  5.2348482598128399e-03  5.6758397862639552e-03  4.9003462653773727e-03  1.4363848238106150e-02  1.4426096545771434e-02  1.3982630740596972e-02  1.3618253452037387e-02  1.7027679842779312e-02  1.6784555388682072e-02  1.7004947723112181e-02  1.7272304548789145e-02  1.7026398697180277e-02  1.5036391741809749e-02  1.5264028950785109e-02  1.7113279757655270e-02  1.7222521601594775e-02  1.6971283453738141e-02  1.6033882887680408e-02  1.6803466025107246e-02  1.6802357495632074e-02  1.7009656259628112e-02  1.6296351013414593e-02  1.6291704010391535e-02  1.9838880726197206e-02  1.9581246185068176e-02  1.9426400296886592e-02  1.9290461193519653e-02  1.9191836550259564e-02  1.8939258997416122e-02  1.8835329881110016e-02  1.8510271301946758e-02  1.8698572855887542e-02  1.8388010412418606e-02  1.8103779423791710e-02  1.7801624261556424e-02  1.6658484528837187e-02  1.9640743808216701e-02  1.4990629608615068e-02  1.5146730673228803e-02  1.4651124833027499e-02  1.4481506126756302e-02  1.4488872189897382e-02  1.4121092227710422e-02  1.4574142564460161e-02  1.2372577555635719e-02  1.2743379340580167e-02  1.2074765328538605e-02  1.3375319695242003e-02  1.3021958356286690e-02  1.4238262183962045e-02  1.5334322084673387e-02  1.5647013725224160e-02  1.5803035684071178e-02  1.5895924388878723e-02  1.3198408168688728e-02  1.2910931511036901e-02  1.5412663842177845e-02  1.5469214632129295e-02  1.4676607774331765e-02  1.4909928649881526e-02  1.4608009803942652e-02  5.3816271857322611e-03  6.1302762242825496e-03  1.4827191286694120e-02  1.5060270085759751e-02  1.4539245493894119e-02  1.5095643555307152e-02  1.4994375611572009e-02  1.5139974858682119e-02  1.4481420946316444e-02  1.4583344452219753e-02  1.4662169306396543e-02  1.5783183142613549e-02  1.5592974927313119e-02  1.5608825028464602e-02  1.5505398014410188e-02  1.4477407259309766e-02  1.4432558639133907e-02  1.4737615597817794e-02  1.4872166042432411e-02  1.4819872455279333e-02  6.9515508245240366e-03  6.9981337032376401e-03  7.0450854667727433e-03  7.0200163663058472e-03  7.0910502121185968e-03  7.2793399143081614e-03  7.3224399662923326e-03  7.4942190432500215e-03  7.6466021209750396e-03  7.3436756831780810e-03  7.3553425555209009e-03  7.4427684780172254e-03  7.7392523494622563e-03  7.7320413983489357e-03  7.8716413384400715e-03  7.5995752648106672e-03  7.4721782511396051e-03  7.3528361660263296e-03  7.3440274297023409e-03  7.1701010436487998e-03  7.2071760638537999e-03  7.2701796096894880e-03  7.2463973526823364e-03  7.3621751856370946e-03  7.3468489306109525e-03  7.1453597960931328e-03  7.3880010686697695e-03  7.4747831762538679e-03  7.6010542883629025e-03  7.4651826658216035e-03  8.0060705966480562e-03  7.8776072387374725e-03  7.7477176012879824e-03  6.9227201393604523e-03  6.9594400312537486e-03  7.1954962750905710e-03  9.0388032657239478e-03  9.1178891694904882e-03  9.1261314892620172e-03  9.0516084018182931e-03  7.7048738750649746e-03  7.8693698758400578e-03  7.4841571909858001e-03  7.6312514673543049e-03  7.5695490477269804e-03  7.3596805134814817e-03  7.4283710831725847e-03  7.6160610139352786e-03  7.7470677527744485e-03  7.9014252994368313e-03  8.0608491773009310e-03  8.0322749870351314e-03  7.7314522424335487e-03  7.6796519111732124e-03  7.6415779784877146e-03  7.8040843264163048e-03  7.1433128325602176e-03  7.2056132505727635e-03  7.2278244346654242e-03  7.2661766756846272e-03  7.3230742620961301e-03  7.7580644753787054e-03  7.6588008570514232e-03  7.6388809825063114e-03  7.5258376676042398e-03  7.4189196401124608e-03  7.6413604341514594e-03  7.5395643968917628e-03  7.7572765062685570e-03  7.7635830140368820e-03  7.8275440337430592e-03  7.7005602392264654e-03  7.9581233171943204e-03  8.1657691533027835e-03  8.3056428124706344e-03  8.0271210432436881e-03  8.1093908892010888e-03  8.2162775802024010e-03  8.2299484469788818e-03  1.6880847304341220e-02  1.719379311