<?xml version="1.0"?>
<VTKFile type="UnstructuredGrid"  version="0.1"  >
<UnstructuredGrid>
<Piece  NumberOfPoints="6340" NumberOfCells="12376">
<Points>
<DataArray  type="Float64"  NumberOfComponents="3"  format="ascii">-0.01956100016832352 0.0207930002361536 0  -0.02035799995064735 0.02151799947023392 0  -0.02056000009179115 0.0205099992454052 0  -0.02122800052165985 0.02136700041592121 0  -0.01977499946951866 0.01986600086092949 0  -0.01942499913275242 0.02167900092899799 0  -0.02002100087702274 0.02247999981045723 0  -0.01953800022602081 0.02327900007367134 0  -0.02059300057590008 0.0233290009200573 0  -0.01894699968397617 0.02239299938082695 0  -0.007600000128149986 0.01810700073838234 0  -0.008318999782204628 0.01893199980258942 0  -0.008646000176668167 0.01799000054597855 0  -0.009374000132083893 0.01885299943387508 0  -0.02554499916732311 0.08033200353384018 0  -0.02646199986338615 0.08094599843025208 0  -0.02664799988269806 0.08014100044965744 0  -0.02621000073850155 0.07349400222301483 0  -0.02681400068104267 0.07435700297355652 0  -0.02703000046312809 0.07345099747180939 0  -0.02775000035762787 0.07402999699115753 0  -0.01141500007361174 0.0905579999089241 0  -0.01231999974697828 0.09056500345468521 0  -0.01183999981731176 0.08972200006246567 0  -0.01935300044715405 0.08560899645090103 0  -0.01835200004279613 0.08560100197792053 0  -0.01878499984741211 0.08644600212574005 0  -0.01892000064253807 0.08476000279188156 0  -0.02257899940013885 0.02514499984681606 0  -0.02160700038075447 0.02509599924087524 0  -0.02206999994814396 0.02600600011646748 0  -0.02248799987137318 0.02691799961030483 0  -0.02306200005114079 0.02607000060379505 0  -0.02108900062739849 0.02596200071275234 0  -0.02060000039637089 0.02504999935626984 0  -0.01957600004971027 0.02500100061297417 0  -0.02008200064301491 0.02590800076723099 0  -0.02210900001227856 0.02421100065112114 0  -0.02317499928176403 0.02433099970221519 0  -0.02246000058948994 0.02294999919831753 0  -0.02186099998652935 0.02218100056052208 0  -0.02160600014030933 0.02328200079500675 0  -0.02098000049591064 0.02240700088441372 0  -0.01600299961864948 0.0219739992171526 0  -0.01652400009334087 0.0210960004478693 0  -0.01545100007206202 0.021076999604702 0  -0.01700199954211712 0.02209099940955639 0  -0.01801900006830692 0.02215100079774857 0  -0.01752099953591824 0.02302400022745132 0  0.04109900072216988 0.08471000194549561 0  0.04096800088882446 0.08383700251579285 0  0.04221000149846077 0.08418799936771393 0  0.04155300185084343 0.0961650013923645 0  0.04227799922227859 0.0965849980711937 0  0.0412990003824234 0.09707199782133102 0  0.02553099952638149 0.1049180030822754 0  0.02565800026059151 0.1039649993181229 0  0.02649600058794022 0.1044379994273186 0  0.02464500069618225 0.1053590029478073 0  0.0247579999268055 0.104202002286911 0  -0.005286999978125095 0.09887599945068359 0  -0.004381000064313412 0.09891600161790848 0  -0.004908999893814325 0.09975399821996689 0  -0.003998000174760818 0.09979899972677231 0  -0.01615899987518787 0.10054100304842 0  -0.01653799973428249 0.09982900321483612 0  -0.01552299968898296 0.09990499913692474 0  -0.01705900020897388 0.1007689982652664 0  -0.01245300006121397 0.1064599975943565 0  -0.01264000032097101 0.1073679998517036 0  -0.01322400011122227 0.1066550016403198 0  -0.00912300031632185 0.09807299822568893 0  -0.0082609998062253 0.0980520024895668 0  -0.008785000070929527 0.09889999777078629 0  -0.009979000315070152 0.09809300303459167 0  -0.009453999809920788 0.09724699705839157 0  -0.01030999980866909 0.09726700186729431 0  -0.01240599993616343 0.100602999329567 0  -0.01289299968630075 0.1014140024781227 0  -0.01329299993813038 0.1006070002913475 0  -0.01136399991810322 0.09895200282335281 0  -0.01223300024867058 0.09897100180387497 0  -0.01169800013303757 0.09813199937343597 0  0.01185099966824055 0.09519000351428986 0  0.01279900036752224 0.09519500285387039 0  0.01227799989283085 0.09605599939823151 0  0.007536000106483698 0.07874500006437302 0  0.008139999583363533 0.07790099829435349 0  0.008484000340104103 0.07874900102615356 0  -0.007280000019818544 0.01724000088870525 0  -0.006426000036299229 0.01748399995267391 0  -0.008185000158846378 0.01709900051355362 0  -0.009128999896347523 0.01695200055837631 0  -0.0129399998113513 0.01682999916374683 0  -0.01322000008076429 0.01791599951684475 0  -0.01384100038558245 0.0170230008661747 0  -0.01236199960112572 0.01773500069975853 0  -0.01240599993616343 0.01876099966466427 0  -0.01150800008326769 0.0179200004786253 0  -0.0119669996201992 0.02169300056993961 0  -0.01245599985122681 0.02073699980974197 0  -0.01147800032049417 0.02078099921345711 0  -0.01097800023853779 0.01993099972605705 0  -0.0104160001501441 0.02077900059521198 0  -0.01196600031107664 0.01978100091218948 0  -0.01295599993318319 0.0217099990695715 0  -0.01443399954587221 0.0209369994699955 0  -0.01496099960058928 0.02191199921071529 0  -0.01394999958574772 0.02179599925875664 0  -0.008853999897837639 0.01980799995362759 0  -0.01095000002533197 0.03070200048387051 0  -0.01146399974822998 0.02983300015330315 0  -0.01042800024151802 0.02977799996733665 0  -0.005216999910771847 0.02953100018203259 0  -0.005747000221163034 0.03044700063765049 0  -0.006260999944061041 0.02957399934530258 0  -0.007845999673008919 0.01989700086414814 0  -0.005231000017374754 0.01942300051450729 0  -0.006256000138819218 0.01923000067472458 0  -0.005431000143289566 0.01857700012624264 0  -0.005501999985426664 0.01774800010025501 0  -0.004480000119656324 0.01803999952971935 0  0.04352400079369545 0.09218499809503555 0  0.0445449985563755 0.09179700165987015 0  0.04394099861383438 0.092849001288414 0  0.04288800060749054 0.09292300045490265 0  0.01733100041747093 0.05993299931287766 0  0.01841199956834316 0.05993000045418739 0  0.01789399981498718 0.06078299880027771 0  0.0319180004298687 0.04614000022411346 0  0.03244400024414062 0.0451279990375042 0  0.03289899975061417 0.0459039993584156 0  0.03387700021266937 0.05053500086069107 0  0.03483200073242188 0.04994099959731102 0  0.03513000160455704 0.05071200057864189 0  0.03340600058436394 0.0539419986307621 0  0.03245599940419197 0.05395200103521347 0  0.03304700180888176 0.05306499823927879 0  0.03265900164842606 0.05221199989318848 0  0.0336810015141964 0.05218499898910522 0  0.03205399960279465 0.05308400094509125 0  0.03147200122475624 0.05395999923348427 0  0.03161900117993355 0.05225199833512306 0  0.03111400082707405 0.05143500119447708 0  0.03057000041007996 0.05227600038051605 0  0.03004599921405315 0.05144499987363815 0  0.04094500094652176 0.09448199719190598 0  0.03996099904179573 0.094480000436306 0  0.04049399867653847 0.09363300353288651 0  0.03953099995851517 0.09359800070524216 0  0.009285000152885914 0.02547400072216988 0  0.01008599996566772 0.02599499933421612 0  0.009271999821066856 0.02653099969029427 0  0.01014799997210503 0.02695300057530403 0  0.02951199933886528 0.05228700116276741 0  0.02528000064194202 0.0539809986948967 0  0.0247540008276701 0.05483200028538704 0  0.02421100065112114 0.05397199839353561 0  0.02581200003623962 0.05483900010585785 0  0.03189900144934654 0.05482500046491623 0  0.02066599950194359 0.03698299825191498 0  0.01972799934446812 0.03680200129747391 0  0.02019000053405762 0.03594899922609329 0  0.01471799984574318 0.04184700176119804 0  0.01372299995273352 0.04179999977350235 0  0.01423399988561869 0.04095099866390228 0  0.01323799975216389 0.04090499877929688 0  0.01272699981927872 0.04175300151109695 0  0.01274999976158142 0.04000499844551086 0  0.01374899968504906 0.04005699977278709 0  0.01420800015330315 0.0426970012485981 0  -0.02761499956250191 0.07491999864578247 0  -0.02651900053024292 0.07518599927425385 0  -0.0274909995496273 0.07573399692773819 0  -0.02585699968039989 0.07438399642705917 0  -0.02546099945902824 0.07520999759435654 0  -0.02443600073456764 0.07523900270462036 0  -0.02489900030195713 0.07606499642133713 0  -0.02387399971485138 0.07441700249910355 0  -0.02342999912798405 0.07525400072336197 0  -0.02393200062215328 0.07608199864625931 0  -0.02785100042819977 0.07311200350522995 0  -0.01821400038897991 0.08727700263261795 0  -0.01921599917113781 0.08728700131177902 0  -0.01669199950993061 0.09648600220680237 0  -0.01759300008416176 0.09653499722480774 0  -0.01709200069308281 0.09567700326442719 0  -0.01798900030553341 0.09572900086641312 0  -0.01750100031495094 0.09486500173807144 0  -0.01569299958646297 0.09909199923276901 0  -0.014852000400424 0.0990699976682663 0  -0.01459500007331371 0.09987799823284149 0  -0.01277100015431643 0.08972799777984619 0  -0.0110719995573163 0.08301699906587601 0  -0.01007500011473894 0.0830100029706955 0  -0.01050900015980005 0.08385399729013443 0  -0.009964000433683395 0.08468999713659286 0  -0.009522999636828899 0.08384700119495392 0  -0.01517799962311983 0.08131200075149536 0  -0.01570999994874001 0.08044999837875366 0  -0.01472300011664629 0.08045200258493423 0  -0.01373500004410744 0.08045200258493423 0  -0.01425100024789572 0.07959000021219254 0  -0.01792100071907043 0.08475500345230103 0  -0.01748899929225445 0.08389700204133987 0  -0.01848600059747696 0.08389800041913986 0  -0.0194850005209446 0.08390200138092041 0  -0.02446500025689602 0.0769210010766983 0  -0.02495200000703335 0.07948099821805954 0  -0.02451499924063683 0.08033499866724014 0  -0.02355399914085865 0.02506200037896633 0  -0.02391999959945679 0.02576999925076962 0  -0.02417399920523167 0.02647599950432777 0  -0.02444799989461899 0.02723599970340729 0  -0.0234409999102354 0.02701999992132187 0  -0.02008300088346004 0.02415999956429005 0  -0.01904899999499321 0.02409799955785275 0  -0.02112000063061714 0.02418999932706356 0  -0.02280700020492077 0.0236200001090765 0  -0.01746100001037121 0.01825400069355965 0  -0.01707799918949604 0.01901699975132942 0  -0.01827999949455261 0.01864000037312508 0  -0.01662000082433224 0.017858000472188 0  -0.01849400065839291 0.02318700030446053 0  -0.01651000045239925
[...]
<PointData  Scalars="pressure"> 
<DataArray  type="Float64"  Name="pressure"  format="ascii">1.8380129063891342e-02  1.8367188886648587e-02  1.8376043879663930e-02  1.8355777851136061e-02  1.8391111451011164e-02  1.8384551367025739e-02  1.8374694395415558e-02  1.8379601955526327e-02  1.8362200347776039e-02  1.8390940970808151e-02  1.8853946718063615e-02  1.8792932025351892e-02  1.8762047834102163e-02  1.8723631585753204e-02  2.1345527777763110e-02  2.1369404151845024e-02  2.1262858074205200e-02  2.0214072792494875e-02  2.0318533485584399e-02  2.0151860703025340e-02  2.0205686657991381e-02  1.5950206262488692e-02  1.6390098293385176e-02  1.6374262525643928e-02  2.0878975185607777e-02  2.0690865607367319e-02  2.0515700289540209e-02  2.1044870782465794e-02  1.8310248418030500e-02  1.8329102076491129e-02  1.8304748929666791e-02  1.8276502328586876e-02  1.8278487365218272e-02  1.8323344927865529e-02  1.8346300798475337e-02  1.8367245045848447e-02  1.8345160945224977e-02  1.8331497436790908e-02  1.8325458487106538e-02  1.8334540411136385e-02  1.8340719806455876e-02  1.8344151386158702e-02  1.8356081187179723e-02  1.8446281676490480e-02  1.8427571860691976e-02  1.8454069371107586e-02  1.8424257670398781e-02  1.8405749568617874e-02  1.8418271383158519e-02  1.5411220594107093e-02  1.3932397749277389e-02  1.5169002364900201e-02  2.6520909384857176e-02  2.6952968319276693e-02  2.7072280325573170e-02  2.4877463905494279e-02  2.4088983423225661e-02  2.4788699137575084e-02  2.4976910355575484e-02  2.3971552099519875e-02  1.8982662021610971e-02  1.9192019159770549e-02  1.9630462078369652e-02  1.9855569043406272e-02  1.8588271725670121e-02  1.8407121924016497e-02  1.8466744407384182e-02  1.8494603263129898e-02  2.0487890198503146e-02  2.0675960079492111e-02  2.0406949805610631e-02  1.7917868782254251e-02  1.7972577511479099e-02  1.8427782803439145e-02  1.7886766525536009e-02  1.7420249876289040e-02  1.7444981052838815e-02  1.8824307698713592e-02  1.9037637358636006e-02  1.8753744132918020e-02  1.8261482733481271e-02  1.8248696328704742e-02  1.7904963994563480e-02  1.5114033967895325e-02  1.4815272787484820e-02  1.5180496011386000e-02  3.6525389687181754e-03  3.0053814586390969e-03  2.8292712243527737e-03  1.8846139885390523e-02  1.8928743121655652e-02  1.8774804351718924e-02  1.8705982834343337e-02  1.8504650293335003e-02  1.8519833472843965e-02  1.8474726909591864e-02  1.8552033895633906e-02  1.8559461522635330e-02  1.8592490520939420e-02  1.8607803819500578e-02  1.8572088413526259e-02  1.8624746937684906e-02  1.8644257611592472e-02  1.8684005002707470e-02  1.8589145893506367e-02  1.8556920021310951e-02  1.8486208875078725e-02  1.8476401378354948e-02  1.8512864508066718e-02  1.8762921991728663e-02  1.8789170769164611e-02  1.8724743473693527e-02  1.8809208101336853e-02  1.9227319415003680e-02  1.9225018310418982e-02  1.9119968390500106e-02  1.8820319519050339e-02  1.8960174318042016e-02  1.8933713830656451e-02  1.8977147723808034e-02  1.8979534105811793e-02  1.8989356982214038e-02  2.4179719236848994e-02  2.4341134582820660e-02  2.4834209980758814e-02  2.4553176317897787e-02  1.2468321981562589e-02  1.2777384875742856e-02  1.1907415788951201e-02  2.0187752769958482e-02  2.1005398434780345e-02  2.0930777061355169e-02  1.9516766232659011e-02  2.0357986879784431e-02  2.0304621242929654e-02  1.8489307901997782e-02  1.8476825169288131e-02  1.8722885669748269e-02  1.8940941178640772e-02  1.8930622983927180e-02  1.8711358251619459e-02  1.8459395155774598e-02  1.8928169112753079e-02  1.9110160485009221e-02  1.8907200710268010e-02  1.9087123199954210e-02  2.5153057609320493e-02  2.4805419891533148e-02  2.4326271012601038e-02  2.3920609079304316e-02  2.0293350548896995e-02  2.0336787193451600e-02  2.0317683015063398e-02  2.0367557016424065e-02  1.8858334262842516e-02  1.7909176063120737e-02  1.7471571039041671e-02  1.7755450773795860e-02  1.7635461054617101e-02  1.8214249841469302e-02  2.0504118250501122e-02  2.0527764807267961e-02  2.0505309896056183e-02  2.0528752359527721e-02  2.0529361557889626e-02  2.0582502116486649e-02  2.0574387468922456e-02  2.0519987590729899e-02  2.0598125541387822e-02  2.0615626426095209e-02  2.0457753599013122e-02  2.0365705991521887e-02  2.0495064897592258e-02  2.0537122862655102e-02  2.0399544568549428e-02  2.0590617190535010e-02  2.0675917878771353e-02  2.0798348064017529e-02  2.0559010520639243e-02  2.0768300396328428e-02  2.0887357520972635e-02  2.0052744846350244e-02  2.0103444000941762e-02  2.0338240694011724e-02  1.8026156013933113e-02  1.8155537019101841e-02  1.8053606272221627e-02  1.8224629217418672e-02  1.8129481367007864e-02  1.8301448973647893e-02  1.8294660553299084e-02  1.8493396571728361e-02  1.6855504599587297e-02  1.8666426702280466e-02  1.8125842290296148e-02  1.8201218680262993e-02  1.7645527249200328e-02  1.7656211502195214e-02  2.0899646978548889e-02  2.1127409179730324e-02  2.0788302385472742e-02  2.0375299261901250e-02  2.0583530977820175e-02  2.0877773283263359e-02  2.1038490767479275e-02  2.1203163906508778e-02  2.1329261413577601e-02  2.0991000877790891e-02  2.1306973914567044e-02  2.1412832248454507e-02  1.8311096959664187e-02  1.8292512531526906e-02  1.8264492501375525e-02  1.8238407908856745e-02  1.8248541078788517e-02  1.8364734672208980e-02  1.8385343095028969e-02  1.8347817263209006e-02  1.8334467714938234e-02  1.8409463654277050e-02  1.8409291332030637e-02  1.8407141610665971e-02  1.8410753307996762e-02  1.8399149753542579e-02  1.8440476212713480e-02  1.8457553347751891e-02  1.8430827437291807e-02  1.8702437945412816e-02  1.8769021969396220e-02  1.8678564577335383e-02  1.8664602802630895e-02  1.8750096110975112e-02  1.8795365185701754e-02  1.8733746797151542e-02  1.8808156146454327e-02  1.8763723436545778e-02  1.8840853348550964e-02  1.8884724138115254e-02  1.8822838059971474e-02  2.6005696971898633e-02  2.6475404768535063e-02  2.6610827694761849e-02  2.1810083794974913e-02  2.2835102713425683e-02  2.2388674646762197e-02  1.5986213981383349e-02  1.5504579061247780e-02  1.4951773935389660e-02  1.3876264491304564e-02  2.7094416508141837e-02  2.7002412684756453e-02  2.6460400482627152e-02  2.6457812224241928e-02  2.7123550889417761e-02  2.7121034244798285e-02  2.3449645881144357e-02  2.2958585928882114e-02  2.2469825841191393e-02  2.1919127567082787e-02  2.5919910361802915e-02  2.6392920925179340e-02  2.5884670406237875e-02  2.5697914120647428e-02  2.5087261786040420e-02  2.4806471561813863e-02  2.5608128748966241e-02  2.5158154031468788e-02  2.5302280291871811e-02  2.4424318927448955e-02  2.3353304561454579e-02  2.4341720764720600e-02  2.3969673314337178e-02  2.5091850364246715e-02  1.8649781483383508e-02  1.9055535264227694e-02  1.8522613694035593e-02  1.8051734116895334e-02  1.8473066346818050e-02  2.0691129300570037e-02  2.0064379114611397e-02  2.0195429862931730e-02  2.0217630336571056e-02  1.8717425785904601e-02  1.9854340952681945e-02  1.9628641053215802e-02  1.9692360601511510e-02  2.0140765267249301e-02  1.9910465349776824e-02  2.0279659302288287e-02  2.0090530913076186e-02  1.9969645767024861e-02  2.0141693212276938e-02  1.4776922373082750e-02  1.4547132222555905e-02  1.4577463167326971e-02  1.5516599297106451e-02  1.6014735753236399e-02  1.5718096411345198e-02  1.7940859313149992e-02  1.7425379791888837e-02  1.8915795544773011e-02  1.9394489490676254e-02  1.9667553990517603e-02  1.9345309464924128e-02  1.9486153702668159e-02  1.9264715324119105e-02  1.9621334943152994e-02  1.8345677865379661e-02  1.8289714599974732e-02  1.8702336907058817e-02  1.7885624866091118e-02  1.9004150189893928e-02  1.9118385867395303e-02  1.8908778637250045e-02  1.9616096887786139e-02  1.8946845099232872e-02  1.8526367503935295e-02  1.8626179762185505e-02  2.2918487751294576e-02  2.2676721234816215e-02  2.2666311135143075e-02  2.2398464264703807e-02  2.2341833453896384e-02  2.2155597638956203e-02  2.2505323894369898e-02  2.2674867569504483e-02  2.5998659313650085e-02  2.5676186974839376e-02  2.5718936734060272e-02  2.6224895224390685e-02  2.5950336840880613e-02  2.6116934303048116e-02  2.6350965648537329e-02  2.6310497879225139e-02  2.6122795266886267e-02  2.5926087159482351e-02  2.5807851606916940e-02  2.5086385102711224e-02  2.5846488719519573e-02  2.5116282328882602e-02  2.5730691969589169e-02  2.4602425137900716e-02  2.4782628734107887e-02  2.4578903862533120e-02  2.3229175358853764e-02  2.3014280167234048e-02  2.2957707732602646e-02  2.2338143083440582e-02  2.2288955513721200e-02  2.2631500795537544e-02  1.3337663958530021e-02  1.3666760354910538e-02  1.3698932959085653e-02  1.3380194296051216e-02  1.3761465551469485e-02  1.3958786760416255e-02  2.4766492305625387e-03  2.7614038775756189e-03  2.1141059832248087e-03  3.2144422008024594e-03  1.8205894516341095e-03  1.6224402755981339e-03  1.3897516825274320e-03  1.3170174141191454e-03  1.3085194249870976e-02  1.3596310339415692e-02  1.3890619667580194e-02  1.5646464777362021e-02  1.5371557646554105e-02  1.5990903133295774e-02  1.5738546121324682e-02  1.8175348056015860e-02  1.7760448122251193e-02  1.8064689186938831e-02  1.8857660445428630e-02  1.8837562951157946e-02  1.8928074209564903e-02  1.2647928736910879e-02  1.2850065640545413e-02  1.3098901470859146e-02  1.1751661882942004e-02  1.2137235389120187e-02  1.1543612373786080e-02  1.0915173749002839e-02  1.1325104696423356e-02  1.3345264601343082e-02  1.2319432414627478e-02  1.2908837712467204e-02  1.2184655712550592e-02  1.0779629871014678e-02  1.0783030515780789e-02  1.1344434409203175e-02  1.0812203204669265e-02  1.0295452090456408e-02  1.0223140103707534e-02  1.0705846761118696e-02  1.1245494833976711e-02  1.0564526372966804e-02  9.3314581865838186e-03  9.3182716413412574e-03  1.0049491217975062e-02  8.7003556434050201e-03  1.6671783085204426e-02  1.6036060245294984e-02  1.6296652872108120e-02  1.9736124221398709e-02  1.9289076702178994e-02  1.8918500570732254e-02  1.2996242361261519e-02  1.3133615460593166e-02  1.2205513070697768e-02  1.2360962856607293e-02  1.3913106725484467e-02  1.3478915001542349e-02  1.3343549169353942e-02  1.3801822969962182e-02  1.4756431936809422e-02  1.4875779155598274e-02  1.5406232726919976e-02  1.6163165816356889e-02  1.5691929891044402e-02  1.5084573129665678e-02  1.5643443681939338e-02  2.6601925463794161e-03  2.0002994219251377e-03  3.5172547205511821e-03  3.4555331623565208e-03  4.4074853379311302e-03  2.2163336221793541e-03  6.1409941292333084e-04  1.1172107240732393e-03  5.9930221341286324e-04  1.8464221198718780e-02  1.8420749336557050e-02  1.8445785747504773e-02  1.8455997934228835e-02  1.8541603878236793e-02  1.8547509829366742e-02  1.8587911918939770e-02  1.8672163725906674e-02  1.8655201421506330e-02  1.8628514260680466e-02  1.8642844145581417e-02  1.8692853318858067e-02  1.8642454010947745e-02  1.8668190002269117e-02  1.8591781827675614e-02  1.8564873224516318e-02  1.8828740013351615e-02  1.8848191411189312e-02  1.8900823055974240e-02  1.8914495585269295e-02  1.8968005850049825e-02  1.8975756709105354e-02  1.9357123813648749e-02  1.9196219512000158e-02  1.9177569638395332e-02  1.9100067153601494e-02  1.9158142473199621e-02  1.9272816923298179e-02  1.8869078751647096e-02  1.8875113084142109e-02  1.9993424288010063e-02  1.9864408183346394e-02  1.9564008487905515e-02  1.9723580326360068e-02  1.9594309334385482e-02  1.7412349736533324e-02  1.7587571921516748e-02  1.7662523564908120e-02  1.6875777336159525e-02  1.6724797712264240e-02  1.6843589156355403e-02  1.4389435636314729e-02  1.3758139640298230e-02  1.3411108371177899e-02  1.2908265125876218e-02  1.5469233734057484e-02  1.5221049062396736e-02  1.6057027113216153e-02  2.3484246585872028e-02  2.1042156319397043e-02  2.1575188836451206e-02  2.2045322190526247e-02  2.2712538999163912e-02  1.8038085147006257e-02  1.8994533777110915e-02  1.8752826302760695e-02  1.8232456294028296e-02  1.9040384074203505e-02  1.7760240089839820e-02  1.8002811958368954e-02  1.5663334360176692e-02  1.6055008544891784e-02  1.5645112607734012e-02  1.6419019922458446e-02  1.6431684572461327e-02  1.6018509176493195e-02  1.7669058491052325e-02  1.7967492565058113e-02  1.7717649022681664e-02  1.7474862199051422e-02  1.7143152912094027e-02  1.7144717035942704e-02  1.7455471573168818e-02  1.6952789720457793e-02  1.7056838184090064e-02  1.6655575424184652e-02  1.6203481398664048e-02  1.6330472194141299e-02  1.5877671945807779e-02  1.6965750466177217e-02  1.7700411230425393e-02  1.7249629214931960e-02  1.6493186894306771e-02  1.6908404296202047e-02  6.9392423942195962e-03  6.0568697422949784e-03  6.4770769106013981e-03  1.2832037339764263e-02  1.3284805270737282e-02  1.3632853228238626e-02  1.3404514781874197e-02  7.3397682224727485e-03  6.8967273235621754e-03  7.6801817101655942e-03  6.5564312688952305e-03  7.0765376407604386e-03  7.9008304459978994e-03  1.5813959572570088e-02  1.6391454014311850e-02  1.5915121620651750e-02  1.5228465392642419e-02  1.5708237476543201e-02  1.4140977741775727e-02  1.4173345189151837e-02  1.3558981451701079e-02  1.5320042943626344e-02  1.4717305100497702e-02  7.6669037592872920e-03  6.8070793791602732e-03  7.5490323267634780e-03  6.9549421951202589e-03  7.8657084196751929e-03  8.5787887799801121e-03  6.1099447126807989e-03  6.7612447423515722e-03  6.0282106083934459e-03  6.3789250471090152e-03  6.8461671896227309e-03  6.1729037067801036e-03  5.2277242642915847e-03  5.7138104219508525e-03  2.0126537200156322e-02  1.8478058930221510e-02  1.8993587776560336e-02  1.8770226350064690e-02  1.8244826976730251e-02  2.0109376306377824e-02  1.9891503914542728e-02  1.9213263232526045e-02  1.9792308474417802e-02  1.9130598289916131e-02  1.8711545878607370e-02  1.9593399914885103e-02  1.9449708680337730e-02  1.9441329446396562e-02  1.9286789299991666e-02  1.9046310281697690e-02  1.8795773667760397e-02  1.8954356545922230e-02  1.8647982858215454e-02  1.8872875272421895e-02  1.9726419207910097e-02  1.9713789800517037e-02  1.8694191083723482e-02  1.9131201944370006e-02  2.3402568397920844e-02  2.0394152800198267e-02  2.0368906171386276e-02  2.0393198331646170e-02  2.0437445509240308e-02  2.0443778820632409e-02  2.0409659253170859e-02  2.0425793012323196e-02  2.0167996587564189e-02  2.0200197493758770e-02  2.0106376788600364e-02  2.0072177244344021e-02  2.0130793454828662e-02  2.0208406839361079e-02  1.9868898808727348e-02  1.9882255440775633e-02  1.9721849979639657e-02  2.0013077843558512e-02  1.9719964515880147e-02  1.9885856296975642e-02  1.9556774195354790e-02  1.9567745733517120e-02  1.7175757393972233e-02  1.6868381100823865e-02  1.6663872603419515e-02  1.7919375428654377e-02  1.7789509052858643e-02  1.8169656047705911e-02  1.8403532237363775e-02  1.8509066046084998e-02  1.8047063669279457e-02  1.7923508233394801e-02  1.7597481656500064e-02  1.7855597934279301e-02  1.1721987852854145e-02  1.1304144984401751e-02  1.1990717111105130e-02  1.4837952426012192e-02  1.5172581936329454e-02  1.5386578472729551e-02  2.0557082891228075e-02  2.0754744851387341e-02  2.0787225953625976e-02  2.0577574754201265e-02  2.0482093457121799e-02  2.0463034546879803e-02  2.0574893564561717e-02  2.0549198722037629e-02  2.0550052334472546e-02  2.1115165568439929e-02  2.1120436765886087e-02  2.0523388042067447e-02  2.0550538752007960e-02  2.1118205667789085e-02  2.0320118495962675e-02  2.0338384939810911e-02  2.0342619676344247e-02  2.1038061148962880e-02  2.0618772036464769e-02  2.0987771216544611e-02  2.0929690784646474e-02  2.0510305877171731e-02  2.0383390834484885e-02  2.0399217560827774e-02  2.0418651654029816e-02  2.0536512767298738e-02  2.0552621939339433e-02  2.0525553964111175e-02  2.0538394829698655e-02  1.9870283699486655e-02  1.9862210783832955e-02  1.9663207698614075e-02  1.9882919413156799e-02  2.0056483905972814e-02  2.0571613940675346e-02  2.0580502825939168e-02  2.0521824075183805e-02  2.0201286598046049e-02  2.0042345180727509e-02  2.0086386114296514e-02  2.0230309126859955e-02  2.0072907305954599e-02  2.0218828138053119e-02  2.0352763925136713e-02  2.0453110978846049e-02  2.0440720994076400e-02  2.0362251888679593e-02  2.0455606141307096e-02  2.0966111890969964e-02  2.0767804559289497e-02  2.0969953385693425e-02  1.2838503701495923e-02  1.3092803375423052e-02  1.2349021387012623e-02  2.1087816928882216e-02  2.1172124294523156e-02  2.0718998543821643e-02  2.0284328804553841e-02  1.8170774665528751e-02  1.8188534198962731e-02  1.7792069116092796e-02  1.8198694673190890e-02  1.8520301836857253e-02  2.0585950354562378e-02  2.0921103156447112e-02  1.9219181044270912e-02  1.9033758284809386e-02  1.9236055785416102e-02  2.0285343396897401e-02  1.8912697942664584e-02  1.8573415612581821e-02  1.8825759875321379e-02  1.9632298044496631e-02  1.9923288565181892e-02  1.8284906852188195e-02  1.8261107315463355e-02  1.8218141223416782e-02  1.8183685746102286e-02  1.8239568828385830e-02  1.8144010998001225e-02  1.8233892707783819e-02  1.8306080490014479e-02  1.8225902436274970e-02  1.8317976451992526e-02  1.7915234714922297e-02  1.8041293994413815e-02  1.6048403148227492e-02  1.8263088591851644e-02  1.4720154730945871e-02  1.4818145367953967e-02  1.5041879320278364e-02  1.4933362085605827e-02  1.7579838413679688e-02  1.7127644933645721e-02  1.6967228914449232e-02  1.6043033393267681e-02  1.6390674702475797e-02  1.6318724005082628e-02  1.6353776021130934e-02  1.6096437985327922e-02  1.6612211830955279e-02  1.4957912806385965e-02  1.4723035731666063e-02  1.4917700306699189e-02  1.5934774412439592e-02  1.6768056481290768e-02  1.7576348775897692e-02  2.1206739900584224e-02  2.0891618259887453e-02  2.0958904136000111e-02  2.1259766933615535e-02  2.1056276689080566e-02  1.2641949819429437e-02  1.3340326770918551e-02  2.1306003779102398e-02  2.1467178418671656e-02  2.1064515765504766e-02  2.1661101513018661e-02  2.1590179072569573e-02  2.1656512235947712e-02  2.1174637455054827e-02  2.1259875703334794e-02  2.1360110767224837e-02  2.0644233921528699e-02  2.1449704415814452e-02  2.1322343986892065e-02  2.1539247966603631e-02  2.1223303251244306e-02  2.1152233983647580e-02  2.1404975067852921e-02  2.1429367366794821e-02  2.1449721887130478e-02  1.8217155887972694e-02  1.8211737827125814e-02  1.8180434348245060e-02  1.8211006800223868e-02  1.8191161684549120e-02  1.8388661062216947e-02  1.8399071980794161e-02  1.8413625116949179e-02  1.8425439702157206e-02  1.8410291041281737e-02  1.8401671122811609e-02  1.8467412219122570e-02  1.7992206768929986e-02  1.8028874978354061e-02  1.7950138023933332e-02  1.8061340919297602e-02  1.8091192321930179e-02  1.8118841489010169e-02  1.8145746140022945e-02  1.8337635591865679e-02  1.8375739890706330e-02  1.8340001697146582e-02  1.8297938373440844e-02  1.8297920604422188e-02  1.8253367362009588e-02  1.8302127451309103e-02  1.8347801367191559e-02  1.8248833711288381e-02  1.8190676766674352e-02  1.8200940352185446e-02  1.7864414252977707e-02  1.7914689046265503e-02  1.7961864046020893e-02  1.8318908176272471e-02  1.8343294097804212e-02  1.8442901387657598e-02  1.6926920550751873e-02  1.6844343562796710e-02  1.6835175959846314e-02  1.6911372155726044e-02  1.8589161832901890e-02  1.8647667469870972e-02  1.8466365947529227e-02  1.8506132631078063e-02  1.8430310328113167e-02  1.8437177454795561e-02  1.8496479277568780e-02  1.8247530750798650e-02  1.8182798358756604e-02  1.8174722974701289e-02  1.8165716834540744e-02  1.8085437435224772e-02  1.8465978954718000e-02  1.8385888765781750e-02  1.8312529100783879e-02  1.8327497305263236e-02  1.8429217758883096e-02  1.8454015304657310e-02  1.8464316991723694e-02  1.8476749688656993e-02  1.8506194009279983e-02  1.8712209613220652e-02  1.8684742505825216e-02  1.8646837550151577e-02  1.8621430381118298e-02  1.8553264318072443e-02  1.8697540580306909e-02  1.8617019284612873e-02  1.8670748943717216e-02  1.8775307498244187e-02  1.8800037484905201e-02  1.8727484712356593e-02  1.8867441582884462e-02  1.8722903791624734e-02  1.8742251242947663e-02  1.8706384442144147e-02  1.8853565292321968e-02  1.8862593666433912e-02  1.8908232054329271e-02  2.5984786744122003e-02  2.647680179