<?xml version="1.0"?>
<VTKFile type="UnstructuredGrid"  version="0.1"  >
<UnstructuredGrid>
<Piece  NumberOfPoints="6340" NumberOfCells="12376">
<Points>
<DataArray  type="Float64"  NumberOfComponents="3"  format="ascii">-0.01934600062668324 0.02077700011432171 0  -0.01994699984788895 0.02140999957919121 0  -0.02019000053405762 0.02043999917805195 0  -0.0206569992005825 0.02113199979066849 0  -0.01958700083196163 0.01986199989914894 0  -0.01917099952697754 0.02164899930357933 0  -0.01959899999201298 0.02236000075936317 0  -0.0191469993442297 0.02318000048398972 0  -0.01999000087380409 0.02305899932980537 0  -0.01872600056231022 0.02237400040030479 0  -0.009074999950826168 0.01765000075101852 0  -0.009680000133812428 0.01856300048530102 0  -0.01001599989831448 0.01762600056827068 0  -0.01062699966132641 0.01858000084757805 0  -0.02411900088191032 0.07169300317764282 0  -0.02500900067389011 0.07197599858045578 0  -0.02515899948775768 0.07122299820184708 0  -0.02441900037229061 0.06550200283527374 0  -0.02504199929535389 0.06610400229692459 0  -0.02519300021231174 0.06524000316858292 0  -0.02590999938547611 0.0655599981546402 0  -0.0118180001154542 0.08395399898290634 0  -0.01266399957239628 0.08374500274658203 0  -0.01212000008672476 0.08319000154733658 0  -0.0185369998216629 0.07793900370597839 0  -0.01760400086641312 0.07819800078868866 0  -0.01808799989521503 0.07879400253295898 0  -0.01805900037288666 0.07733699679374695 0  -0.02144099958240986 0.02432299964129925 0  -0.02066300064325333 0.02452399954199791 0  -0.02096300013363361 0.02521399967372417 0  -0.02122600004076958 0.02591600082814693 0  -0.02175600081682205 0.02502099983394146 0  -0.02017799951136112 0.02542099915444851 0  -0.01985700055956841 0.02466100081801414 0  -0.01903899945318699 0.02477799914777279 0  -0.01937299966812134 0.02554200030863285 0  -0.02113699913024902 0.02361500076949596 0  -0.02198499999940395 0.02345299907028675 0  -0.02151999995112419 0.02240999974310398 0  -0.02110099978744984 0.02178899943828583 0  -0.02080800011754036 0.02285500057041645 0  -0.02037500031292439 0.02214000001549721 0  -0.0162969995290041 0.02207699976861477 0  -0.01679399982094765 0.02120199985802174 0  -0.01587899960577488 0.02117200009524822 0  -0.01714199967682362 0.02219999954104424 0  -0.01797699928283691 0.02219600044190884 0  -0.0175039991736412 0.02307599969208241 0  0.04087699949741364 0.07601799815893173 0  0.04056299850344658 0.0751819983124733 0  0.04181699827313423 0.07523799687623978 0  0.04360499978065491 0.08590699732303619 0  0.04436900094151497 0.08611500263214111 0  0.04328199848532677 0.08660899847745895 0  0.02579100057482719 0.09455999732017517 0  0.02597899921238422 0.09384100139141083 0  0.02686000056564808 0.09407400339841843 0  0.02480800077319145 0.09500700235366821 0  0.02499100007116795 0.09414000064134598 0  -0.007139999885112047 0.09186699986457825 0  -0.006304999813437462 0.09211800247430801 0  -0.006891000084578991 0.09264899790287018 0  -0.006041999906301498 0.09290499985218048 0  -0.01723200082778931 0.09066899865865707 0  -0.01752999983727932 0.0900299996137619 0  -0.01657200045883656 0.09031800180673599 0  -0.01810799911618233 0.09064400196075439 0  -0.01452500000596046 0.09611599892377853 0  -0.01481399964541197 0.09678400307893753 0  -0.01523100025951862 0.09608899801969528 0  -0.01044599991291761 0.09032999724149704 0  -0.009676000103354454 0.09051399677991867 0  -0.01025400031358004 0.0910549983382225 0  -0.01122399978339672 0.09015200287103653 0  -0.01064500026404858 0.08961199969053268 0  -0.01142300013452768 0.08943299949169159 0  -0.01372900046408176 0.09155499935150146 0  -0.01426899991929531 0.09207600355148315 0  -0.01454600039869547 0.09135899692773819 0  -0.01258299965411425 0.09050600230693817 0  -0.0133899999782443 0.09032599627971649 0  -0.01280499994754791 0.08979400247335434 0  0.01149700023233891 0.08929699659347534 0  0.01252400036901236 0.08917000144720078 0  0.01191299967467785 0.0898749977350235 0  0.007703000213950872 0.0777989998459816 0  0.008173000067472458 0.07698799669742584 0  0.008728999644517899 0.07767099887132645 0  -0.008829999715089798 0.01672999933362007 0  -0.008066999725997448 0.01689199917018414 0  -0.009645000100135803 0.01666899956762791 0  -0.010495999827981 0.01660599932074547 0  -0.01389999967068434 0.01678000018000603 0  -0.01409399975091219 0.01789600029587746 0  -0.01468599960207939 0.01701899990439415 0  -0.01334199961274862 0.01766199991106987 0  -0.01333300024271011 0.01871299929916859 0  -0.0125730000436306 0.01778900064527988 0  -0.0127999996766448 0.0216669999063015 0  -0.01327900029718876 0.02072099968791008 0  -0.0124099999666214 0.02071000076830387 0  -0.01200500037521124 0.01980400085449219 0  -0.01146399974822998 0.02062899991869926 0  -0.01289200037717819 0.01972400024533272 0  -0.013671999797225 0.02173200063407421 0  -0.0150170000270009 0.02101800031960011 0  -0.01541099976748228 0.02200300060212612 0  -0.01454699970781803 0.02186599932610989 0  -0.01011699996888638 0.01951099932193756 0  -0.01145500037819147 0.03075899928808212 0  -0.01195199973881245 0.02990199998021126 0  -0.01104000024497509 0.02979700081050396 0  -0.006413000170141459 0.0291569996625185 0  -0.006843999959528446 0.03014600090682507 0  -0.007344000041484833 0.029296999797225 0  -0.009212000295519829 0.01950999908149242 0  -0.006920999847352505 0.01876199990510941 0  -0.007832000032067299 0.01867100037634373 0  -0.007139000110328197 0.01791200041770935 0  -0.007242999970912933 0.01706600002944469 0  -0.006329999770969152 0.01726000010967255 0  0.04559100046753883 0.08255799859762192 0  0.04633399844169617 0.08197300136089325 0  0.04624100029468536 0.08308599889278412 0  0.04522399976849556 0.08333799988031387 0  0.0143029997125268 0.05744399875402451 0  0.01525299996137619 0.05719099938869476 0  0.0148700000718236 0.05813699960708618 0  0.02597099915146828 0.04067099839448929 0  0.02634100057184696 0.03957600146532059 0  0.02682800032198429 0.04019900038838387 0  0.02826800011098385 0.0443120002746582 0  0.02907700091600418 0.04350100085139275 0  0.0294599998742342 0.04414699971675873 0  0.0283029992133379 0.04764600098133087 0  0.02740900032222271 0.04789799824357033 0  0.02783999964594841 0.04690799862146378 0  0.02736200019717216 0.04620900005102158 0  0.02831000089645386 0.04591400176286697 0  0.02691599912941456 0.04718799889087677 0  0.02649400010704994 0.04816500097513199 0  0.02639799937605858 0.04652100056409836 0  0.02583000063896179 0.04588599875569344 0  0.02543099969625473 0.04681999981403351 0  0.02485300041735172 0.0461760014295578 0  0.04303700104355812 0.08475299924612045 0  0.04197200015187263 0.08488699793815613 0  0.04259400069713593 0.08419100195169449 0  0.04155300185084343 0.0842989981174469 0  0.005429999902844429 0.02280000038444996 0  0.006107999943196774 0.02323099970817566 0  0.00547900004312396 0.02390000037848949 0  0.006211999803781509 0.02421800047159195 0  0.02446500025689602 0.04710900038480759 0  0.0208090003579855 0.04980399832129478 0  0.0204240009188652 0.05074600130319595 0  0.01984900049865246 0.05006600171327591 0  0.02138100005686283 0.05048200115561485 0  0.0270140003412962 0.04887000098824501 0  0.01553700026124716 0.03356600180268288 0  0.01473500020802021 0.03348600119352341 0  0.01506900042295456 0.03254599869251251 0  0.01084799971431494 0.0392719991505146 0  0.01001300010830164 0.03931500017642975 0  0.01038799993693829 0.03838000074028969 0  0.009553000330924988 0.03842300176620483 0  0.009177999570965767 0.03935800120234489 0  0.009093999862670898 0.03753000125288963 0  0.009928000159561634 0.03748900070786476 0  0.01047299988567829 0.04020800068974495 0  -0.02583199925720692 0.06637900322675705 0  -0.02480899915099144 0.06691399961709976 0  -0.02576100081205368 0.06712800264358521 0  -0.02413599938154221 0.06639199703931808 0  -0.02380800060927868 0.06722600013017654 0  -0.02283800020813942 0.06753300130367279 0  -0.02332399971783161 0.06813099980354309 0  -0.02225900068879128 0.06696499884128571 0  -0.02188600040972233 0.06782300025224686 0  -0.02240899950265884 0.06841199845075607 0  -0.02595200017094612 0.06471200287342072 0  -0.0176439993083477 0.07963699847459793 0  -0.01856900006532669 0.07938700169324875 0  -0.01736400090157986 0.08738300204277039 0  -0.01821500062942505 0.08720900118350983 0  -0.01765800081193447 0.0866520032286644 0  -0.01850599981844425 0.08648200333118439 0  -0.01795499958097935 0.0859140008687973 0  -0.0166619997471571 0.08964700251817703 0  -0.01586100086569786 0.08981899917125702 0  -0.01569600030779839 0.0905039981007576 0  -0.01297799963504076 0.08297000080347061 0  -0.01058600004762411 0.07795599848031998 0  -0.009658000431954861 0.07821500301361084 0  -0.010152000002563 0.07880199700593948 0  -0.009758999571204185 0.0796239972114563 0  -0.009247999638319016 0.07904700189828873 0  -0.01433399971574545 0.07538899779319763 0  -0.01480000000447035 0.07449399679899216 0  -0.01386499963700771 0.07476600259542465 0  -0.01293000020086765 0.07503700256347656 0  -0.01338499970734119 0.07414600253105164 0  -0.01712399907410145 0.07760100066661835 0  -0.01665900088846684 0.07698500156402588 0  -0.01759899966418743 0.07671599835157394 0  -0.01854100078344345 0.07644800096750259 0  -0.02295799925923347 0.06900300085544586 0  -0.02352800033986568 0.07111500203609467 0  -0.02314200066030025 0.07197800278663635 0  -0.02223199978470802 0.02400499954819679 0  -0.02246999926865101 0.0245399996638298 0  -0.0226259995251894 0.02505699917674065 0  -0.02279400080442429 0.02561400085687637 0  -0.02198800072073936 0.02575300075113773 0  -0.01951400004327297 0.02391400001943111 0  -0.01868800073862076 0.02402099967002869 0  -0.02034400030970573 0.02377700060606003 0  -0.02174600027501583 0.02291600033640862 0  -0.01776299998164177 0.01836399920284748 0  -0.01739099994301796 0.01912499964237213 0  -0.01844000071287155 0.01875999942421913 0  -0.01706800051033497 0.0179590005427599 0  -0.01829599961638451 0.02317499928176403 0  -0.0
[...]
<PointData  Scalars="pressure"> 
<DataArray  type="Float64"  Name="pressure"  format="ascii">4.8691516462701166e-02  4.8608772148873866e-02  4.8666311747992574e-02  4.8584556134184512e-02  4.8739231823814164e-02  4.8618469889946801e-02  4.8529568363873940e-02  4.8447980176434716e-02  4.8434597631812085e-02  4.8557303150508907e-02  4.9558974501349190e-02  4.9398412452430117e-02  4.9524025367998534e-02  4.9350228004664695e-02  2.5491944939701972e-02  2.5428197910636358e-02  2.5936690594489498e-02  2.9342524196566695e-02  2.9082550522687812e-02  2.9442442888919958e-02  2.9333908832132275e-02  1.4447364517794287e-02  1.4932029942037130e-02  1.4833636416364289e-02  1.9868561142898547e-02  1.9366324475530907e-02  1.9252164141282471e-02  1.9993049070367117e-02  4.8193097149079871e-02  4.8204328400468302e-02  4.8077712510654486e-02  4.7935577094483053e-02  4.8062198673999273e-02  4.8075955354395322e-02  4.8216215355351186e-02  4.8229782756947129e-02  4.8092731518717034e-02  4.8307718395042165e-02  4.8270276312699464e-02  4.8421026743685994e-02  4.8505139171359013e-02  4.8421077630832365e-02  4.8519767558518986e-02  4.8646836081772615e-02  4.8738015514032229e-02  4.8762153056579910e-02  4.8617398007645592e-02  4.8599174112731118e-02  4.8503814810073383e-02  1.1704527753168829e-02  1.0491943442202886e-02  1.1570295486566056e-02  1.9415435449478123e-02  1.9484208454413357e-02  2.0035033401376363e-02  2.3435566771652833e-02  2.2468161065986175e-02  2.4062848708192155e-02  2.2753339629216881e-02  2.1609937872113190e-02  1.1679182113631902e-02  1.1234549146245871e-02  1.1751457978407927e-02  1.1339095226941629e-02  1.5386866360712421e-02  1.5563071900378162e-02  1.5346662718936623e-02  1.5427053361004046e-02  1.4525915998785700e-02  1.4473085349552061e-02  1.4567782157114132e-02  1.3216068626805636e-02  1.2850258741670957e-02  1.3188789995535823e-02  1.3571068928344374e-02  1.3266342264936313e-02  1.3633273476784663e-02  1.4518971183146042e-02  1.4663396241766564e-02  1.4757928755777609e-02  1.4136152577099678e-02  1.4425966611355506e-02  1.4217659366702426e-02  1.1593608825362749e-03  1.4350135688435302e-03  1.7825037210035255e-03  8.4909488259480321e-03  9.5133945175918007e-03  8.4672389373511240e-03  4.9615573053870737e-02  4.9625575764303931e-02  4.9590899303202422e-02  4.9540975287649586e-02  4.9266662970786905e-02  4.9200324207209177e-02  4.9197421183471667e-02  4.9276531126997501e-02  4.9160936201540974e-02  4.9333898385486838e-02  4.8729302578696704e-02  4.8874775574625787e-02  4.8893154200957523e-02  4.9061607733704979e-02  4.8923429296252943e-02  4.9041355312658075e-02  4.8715467863460732e-02  4.8797850003226367e-02  4.8667065363767414e-02  4.8691620902185095e-02  4.9180625977752773e-02  4.7374649811573931e-02  4.7501188875730620e-02  4.7463638117847276e-02  4.6875777238857420e-02  4.6823970669415862e-02  4.7038633310752712e-02  4.9190146324184343e-02  4.9162708898952523e-02  4.9332519046304049e-02  4.9389938538885188e-02  4.9549609487269351e-02  4.9313434113862832e-02  1.7548063228371900e-02  1.7387620297681726e-02  1.7852838215261631e-02  1.7845372895328320e-02  1.7719350907463086e-02  1.8979422422716139e-02  1.7995053277389192e-02  4.1947507911606022e-02  4.1726141834780892e-02  4.1931524539659537e-02  4.2892734646365852e-02  4.2691159640690771e-02  4.2946369592383432e-02  4.2429972882455272e-02  4.1940017747349803e-02  4.2433340512779867e-02  4.2370443588178680e-02  4.2761092576893284e-02  4.1917570768653392e-02  4.1308490588814868e-02  4.1819320007292798e-02  4.1688088602724119e-02  4.1149910081700242e-02  4.1003754501650315e-02  1.8587699668279126e-02  1.8697982303518559e-02  1.8177805442263200e-02  1.8224095117062918e-02  4.5785069986337266e-02  4.5572431222397736e-02  4.5580293317619473e-02  4.5370336418391076e-02  4.0340269799738829e-02  3.4696744213026411e-02  3.3285690822447769e-02  3.3304370420847149e-02  3.4688594502124359e-02  4.1277436632334963e-02  4.1291602112907611e-02  4.1375124009143421e-02  4.1600460565258374e-02  3.7678092752777552e-02  3.7460768318689233e-02  3.8530565662169891e-02  3.8382681761221824e-02  3.7267750908959285e-02  3.9271829891814353e-02  3.9341401538806095e-02  3.6527457616284356e-02  2.8998637935569744e-02  2.8682203661775318e-02  2.8627778274703943e-02  2.8848208133436859e-02  2.8312861875630251e-02  2.7912152325707977e-02  2.7633937640524735e-02  2.8130483666203555e-02  2.7472793557031697e-02  2.7231763035288570e-02  2.9801327276872756e-02  1.8665145631246771e-02  1.9122423286927061e-02  1.5888506689977055e-02  1.6151819820693095e-02  1.6103725420956731e-02  1.6369028121022314e-02  1.6346382451645727e-02  1.5426330455898602e-02  1.5195966466431565e-02  1.5094588600800768e-02  1.5322022428007285e-02  1.5753099781672435e-02  1.5164972517459987e-02  1.5271229610984538e-02  1.4783553969311247e-02  1.4672699576177825e-02  1.8918791981811678e-02  1.9596101355938589e-02  1.8828787326159755e-02  1.8113775588413983e-02  1.8717352519709810e-02  1.9456990320184206e-02  1.9540550898599650e-02  2.0119160611330851e-02  2.0679054067199640e-02  2.6977752179974404e-02  2.5723173377628396e-02  2.5051503501762946e-02  4.8185015903493444e-02  4.8088548411166797e-02  4.7991020530237349e-02  4.7873740420256466e-02  4.7911544443692999e-02  4.8338112965787591e-02  4.8350518786912031e-02  4.8327640504513263e-02  4.8350429011102918e-02  4.8937840489847215e-02  4.8899598382648471e-02  4.8878602761783296e-02  4.9002003958710308e-02  4.8473748466640640e-02  4.8519591584496570e-02  4.8409022169721115e-02  4.8396632643718920e-02  4.7395960344913141e-02  4.7286860216775264e-02  4.7282287645136561e-02  4.8743325222037573e-02  4.8407190697056422e-02  4.8231634660442904e-02  4.8255288750916753e-02  4.8391808486139179e-02  4.8576498920954350e-02  4.8051975897705622e-02  4.7862307260146120e-02  4.7918239031705140e-02  1.8424023036377982e-02  1.8595874111724579e-02  1.8782320996943890e-02  1.6847579230906674e-02  1.7355297170866840e-02  1.7302805173613052e-02  1.3679966148191476e-02  1.3574341783422348e-02  1.2958308299914813e-02  1.0651037844655823e-02  2.1362576548704239e-02  2.2145035358601354e-02  2.1085292040038076e-02  2.0385096500207093e-02  2.0896278868369686e-02  2.0454838756613681e-02  1.8247772359142624e-02  1.7741320600053991e-02  1.7705079873473771e-02  1.7247423871506878e-02  1.9026694754491959e-02  1.9746136182862750e-02  1.9743820503193212e-02  2.0118160764430314e-02  2.0102203048020111e-02  1.9446528794476156e-02  1.9146561652167146e-02  2.1102726848287564e-02  2.0245631843687391e-02  1.9307024242716176e-02  2.0060490731837268e-02  2.1416648247632057e-02  2.0277040203290245e-02  2.1963708976396355e-02  1.2477654157195726e-02  1.2861307146523882e-02  1.2844082514378782e-02  1.2460082670739262e-02  1.1168488143876233e-02  9.4392645282875415e-03  9.1934238865866106e-03  8.6446587627927816e-03  1.1849932910742000e-02  1.5280943920209920e-02  1.4691794777093817e-02  1.4806230423932311e-02  1.4776244169748085e-02  1.4675421583306151e-02  1.4791594400747992e-02  1.4471525701347524e-02  1.4637493296748095e-02  1.4508869933931669e-02  1.4349227153507747e-02  1.0966677485061006e-02  1.1185663463881782e-02  1.0601233142668812e-02  1.2849687631684236e-02  1.3154576437089938e-02  1.3322344401351612e-02  1.4522040739160925e-02  1.2880978683022001e-02  1.3187645748401918e-02  1.3201889218154681e-02  1.4550579410534356e-02  1.4590435780251022e-02  1.4405728113204510e-02  1.4236335571122007e-02  1.4204589205018738e-02  1.3524945412252715e-02  1.3841460244413999e-02  1.3795416836902469e-02  1.3901305793958606e-02  1.4035419605059152e-02  1.3772410058154334e-02  1.4281925809322605e-02  1.4824525243361440e-02  1.4864255346346410e-02  1.4606346383328988e-02  1.4076232639332296e-02  1.1505728786530355e-02  1.1271834938622202e-02  1.0914581880100990e-02  1.0595009472159904e-02  1.2037884344843902e-02  1.1580133203972673e-02  1.1809906293428058e-02  1.2223946564850702e-02  1.4337040756385769e-02  1.4085216374442561e-02  1.4254982042634246e-02  1.4398100273228964e-02  1.4214658833764146e-02  1.4263606317188244e-02  1.4415189005405803e-02  1.4392293716604828e-02  1.4270448639825203e-02  1.4127276749205216e-02  1.6496342165864316e-02  1.6265225412293017e-02  1.7348418747831169e-02  1.5484161239263036e-02  1.5695927012179103e-02  1.3714712528149707e-02  1.3868910676351697e-02  1.3517624786541362e-02  1.1381335866814914e-02  1.0992965441415658e-02  1.0768914822321798e-02  1.0206155582727298e-02  9.7844263647009228e-03  1.0549278213695850e-02  3.1352298908659103e-03  3.7119442169145089e-03  2.9467025066824224e-03  2.4108288438404839e-03  2.2742400112181760e-03  2.8807953085666586e-03  1.0803508665096656e-02  1.1919571241271397e-02  1.2097405149101017e-02  1.0625277683741200e-02  1.1004587006040085e-02  1.5803146519691558e-02  1.5131764189381150e-02  1.4975993852479609e-02  2.0386116089893991e-02  2.0299653340018358e-02  2.1840874447731345e-02  3.0930437854777625e-02  2.9546404855964749e-02  3.1369547337772113e-02  2.9911346661443787e-02  3.2127615286823154e-02  3.0575017215827172e-02  3.0756974680606730e-02  4.7256182849144825e-02  4.7157239845991496e-02  4.7122042920058824e-02  1.9595231647809016e-02  1.9774272595323057e-02  1.9861056645513686e-02  1.8791259776895931e-02  1.8357041246473183e-02  1.8319660356538536e-02  1.8359183462029874e-02  1.7770238206021263e-02  3.9248851363475144e-03  4.6610860647393094e-03  4.2454094917918767e-03  3.8164622609415007e-03  1.7673121539942941e-02  1.7730163606944703e-02  1.9017170861930038e-02  1.7682915323487487e-02  1.6408276588305435e-02  1.6252070840620421e-02  1.7629672725659590e-02  1.9226559644626828e-02  1.7494361343836928e-02  1.4510175132846304e-02  1.5171504195124749e-02  1.6424503647230252e-02  1.3422961622342484e-02  2.7348536414606092e-03  2.0927090945619675e-03  2.8294971992864973e-03  5.6745608844493180e-03  5.0595929116768711e-03  4.6823335222324226e-03  1.3824522402513598e-03  8.7760382674928125e-04  1.1194416473235339e-03  6.7163775528050057e-04  1.6728931793601708e-03  1.7727972644605780e-03  4.8504694482258415e-04  7.7190332655303201e-04  9.0109960377267317e-04  2.1193150413581149e-03  3.8614909521224126e-03  4.3621628860255352e-03  3.3991823643250985e-03  2.9346076175835959e-03  2.2521660297878318e-03  7.5788941075028409e-03  8.5524342960042674e-03  7.6125584461706440e-03  6.7298309429591925e-03  6.8082381964341254e-03  9.6377787526624147e-03  7.1105858381120945e-03  6.8999354910585838e-03  7.9855151732251793e-03  4.8885844411573787e-02  4.9078379798464418e-02  4.9134843075470266e-02  4.9050406834998492e-02  4.8999345800143951e-02  4.9338943177437887e-02  4.9414103811382254e-02  4.9217351161842650e-02  4.9341509803996285e-02  4.9418271742461446e-02  4.9480875997548746e-02  4.9471396413955544e-02  4.7516922455962875e-02  4.7631366136114149e-02  4.7641076248760572e-02  4.7506286342581937e-02  4.7541898195106833e-02  4.7636620857163317e-02  4.7470700097724056e-02  4.7560100286857768e-02  4.7370466075374942e-02  4.7456952036111916e-02  4.6662441741403056e-02  4.7757838814368861e-02  4.7600792401606876e-02  4.7894581692361035e-02  4.7448717322637231e-02  4.7308833599621999e-02  4.9397236776973802e-02  4.9156077881416099e-02  2.9916510890796874e-02  3.0135226867863307e-02  3.0648128308347247e-02  3.0409395271258889e-02  3.0625173409711104e-02  3.4725131520490740e-02  3.6431160618037361e-02  3.5979787214177765e-02  3.6838654072296133e-02  3.6016000147768616e-02  3.7401225793736032e-02  2.7832544050941564e-02  2.5855564273847418e-02  2.6398433993085009e-02  9.7437918421390563e-03  3.1323524844880331e-02  3.1827543490413439e-02  3.2903465618111721e-02  1.7164388256503949e-02  1.6031613492003868e-02  1.6165310697930469e-02  1.6483500460891944e-02  1.6615212926721037e-02  4.1630990951636693e-02  4.2301154706793610e-02  4.1535428019977255e-02  4.2446076941557012e-02  4.2524292634025775e-02  4.1439009044111991e-02  4.1970981203442670e-02  3.3259096522007883e-02  3.5052680466854350e-02  3.3656086822898876e-02  3.6626390501813356e-02  3.6342849281069192e-02  3.5384183218986225e-02  4.0058084133175506e-02  4.1093673937397372e-02  4.0662330598968802e-02  4.0353560409374899e-02  3.9328610138890885e-02  3.9018474632824415e-02  3.9972746378980989e-02  3.7229214584191983e-02  3.8002006702091945e-02  3.6299590650393052e-02  3.4541897135000943e-02  3.5259656132352435e-02  3.3444432993299723e-02  3.8143634692271999e-02  3.8397003820781851e-02  3.7316324175790366e-02  3.4485208678104950e-02  3.6358548293771137e-02  1.7385681334487368e-02  1.7281729664124942e-02  1.7270988429178156e-02  2.2968451025989399e-02  2.3207872081428209e-02  2.4555090176428113e-02  2.1862917410281880e-02  1.8459428828227865e-02  1.8756689942680271e-02  1.8686614971800162e-02  1.8573555943486125e-02  1.8185518408618848e-02  1.7965685942837525e-02  1.7968674365970255e-02  1.8440492663038391e-02  1.7648318672346359e-02  1.7749440526658240e-02  1.8414844331460789e-02  1.7124277791978417e-02  1.6485523990605266e-02  1.6531606897901022e-02  1.7283200085680187e-02  1.7126685730287430e-02  1.6658739680314054e-02  1.7087047175645183e-02  1.6790215081418602e-02  1.6942346227776586e-02  1.6638026026920456e-02  1.6239234791179627e-02  1.8065203392217417e-02  1.7590108632372214e-02  1.7784621652411813e-02  1.1463429055879704e-02  1.1096511890554037e-02  1.0881381542773442e-02  1.7292654079101927e-02  1.7239973441277905e-02  4.2134685738743724e-02  4.2759923392183277e-02  4.3149013715898993e-02  4.3080977367236414e-02  4.2247975927659193e-02  4.2957691388720520e-02  4.3088966303852019e-02  4.3035745171713838e-02  4.2506191557012254e-02  4.2678207585891186e-02  4.2826063737375769e-02  4.2072541245255175e-02  4.2251396841199246e-02  4.1870375298606502e-02  4.2073202540906046e-02  4.0226855906934478e-02  3.9406371241569080e-02  3.6110200567422535e-02  3.4838319334256046e-02  3.4942789035521199e-02  4.1902628349377240e-02  4.2174689302884164e-02  4.1252722832120142e-02  4.2244469895573872e-02  1.7749609705362535e-02  4.5145208096565137e-02  4.5360787231166204e-02  4.5129165462928882e-02  4.4664085805076283e-02  4.4684206492476106e-02  4.4896821944823730e-02  4.4921728803209215e-02  4.6170141890770330e-02  4.6064786930947441e-02  4.6299606285606726e-02  4.6408912567596397e-02  4.6269915663971595e-02  4.6031491758133272e-02  4.6656458537589568e-02  4.6531553129043279e-02  4.6774632178131423e-02  4.6417041747654708e-02  4.6645261564502404e-02  4.6411332266139776e-02  4.6897187578688354e-02  4.7037744949000926e-02  3.3266740669984779e-02  3.3229798393228177e-02  3.1716674421406577e-02  3.7340365508132356e-02  3.6047445874691345e-02  3.7305609721602101e-02  3.7263946986077087e-02  3.8397280850408867e-02  3.6042617589597342e-02  4.0390948245250261e-02  3.9298806636162795e-02  3.9537466932164443e-02  2.0760955815636299e-02  2.0330263550324870e-02  2.1687567142651687e-02  2.9537852097989259e-02  3.0700967723273430e-02  3.1476701769023598e-02  4.1898343440924912e-02  4.2156939145009224e-02  4.1938577704049886e-02  4.1661300317459682e-02  4.1697309406153391e-02  4.1475435147966616e-02  4.1140423004638743e-02  4.1451960258897080e-02  4.1100837693594849e-02  4.1225776157801527e-02  4.1323840642197518e-02  4.1265125914369594e-02  4.1161027510902212e-02  4.1134836458952093e-02  4.1008132958396580e-02  4.0863524461068695e-02  4.0996497255948679e-02  4.1105116284887736e-02  4.1119405274695889e-02  4.1191780405499097e-02  4.1217996027136383e-02  4.1158958676649898e-02  4.1063528002408992e-02  4.0939816914293048e-02  4.1042012034828004e-02  4.2375381233471121e-02  4.1700306293918007e-02  4.1775578477015185e-02  4.0998789287165230e-02  3.3831260820665704e-02  3.4596818023912394e-02  3.3217955130088753e-02  3.3114561061499063e-02  3.4537913333624500e-02  4.1527892512913292e-02  3.8684783573989467e-02  3.7929863613944230e-02  3.5821555522100680e-02  3.5184230845670905e-02  3.3286032810240326e-02  3.4732187252389857e-02  3.3886341814541102e-02  3.5260006898474527e-02  3.6038448979880296e-02  3.6840737657676328e-02  3.7212005506118653e-02  3.5600876723838458e-02  3.6226820339912889e-02  2.5720799376292958e-02  2.5804424192540837e-02  2.4972927170663448e-02  1.3520416955177667e-02  1.3791614036635667e-02  1.3671307000281529e-02  2.6527754238510039e-02  2.6287972409136374e-02  2.7985448777332306e-02  2.9072417946627481e-02  1.6672553553088006e-02  1.6688250776789815e-02  1.6285550389307561e-02  1.6655065611676664e-02  1.7038974699227542e-02  1.8275258634554113e-02  1.8964860822203392e-02  1.7829578721791164e-02  1.7637249136376452e-02  1.7974195603871861e-02  1.8754590415581286e-02  1.7468675291537360e-02  1.7089046852980478e-02  1.7391209784605829e-02  1.8118852112670829e-02  1.8568662846894807e-02  1.5514414628288483e-02  1.5645148500872751e-02  1.5677900284844459e-02  1.5758852663172462e-02  1.5850593866050283e-02  1.5945021135100334e-02  1.6059747446487374e-02  1.6274946645486787e-02  1.6097612012119601e-02  1.6333806483172460e-02  1.6068697302266118e-02  1.6334810746197709e-02  1.4579737619950678e-02  1.5608936109941143e-02  1.1535639691712622e-02  1.2134624087981220e-02  1.1932305787404649e-02  1.1325558900595514e-02  1.4888610497529231e-02  1.4306486215811647e-02  1.4422011453473773e-02  1.2458101999478211e-02  1.3030617653593566e-02  1.2948669899052809e-02  1.3150559382748277e-02  1.2560110048205063e-02  1.3834971952763448e-02  1.2716827879635949e-02  1.2351300365968751e-02  1.2902595369456826e-02  1.4316444055511557e-02  1.3630058989983975e-02  1.4555864126794788e-02  1.9618901672284816e-02  1.8970780633098729e-02  1.9505343668454307e-02  2.0263063523796414e-02  2.0190035131080378e-02  1.4056442251349850e-02  1.4253493502876583e-02  2.0999075562704392e-02  2.1041793632541272e-02  2.0881434624726851e-02  2.3129523656808912e-02  2.3239272477259865e-02  2.2478245968646681e-02  2.6022145919988256e-02  2.5449422333508553e-02  2.5265638582339722e-02  1.8888434806123275e-02  2.0809013264907833e-02  2.0220627161270464e-02  2.0909020235052110e-02  2.6063224488254447e-02  2.6421789005231427e-02  2.4909879176545004e-02  2.4335864686021218e-02  2.4663138364009143e-02  4.7756185446803864e-02  4.7741942974253035e-02  4.7584982803226650e-02  4.7617544315694621e-02  4.7603152679288746e-02  4.8757092477323252e-02  4.8810478274338556e-02  4.8814308293324907e-02  4.8897417633749524e-02  4.8699988636066519e-02  4.8760733238206275e-02  4.8540737987881513e-02  4.6352411499231361e-02  4.6369046355594010e-02  4.6096187235846700e-02  4.6604265140398157e-02  4.6832173635306187e-02  4.7049801287940479e-02  4.7042655787137122e-02  4.7513381574780689e-02  4.7549619097441029e-02  4.7361825830647755e-02  4.7312527448571076e-02  4.7155353469915826e-02  4.7107850326348052e-02  4.7475755483040991e-02  4.7216503563168546e-02  4.6935481895607110e-02  4.6702851112537164e-02  4.6888066707538915e-02  4.5809720620056199e-02  4.6085648528322122e-02  4.6354393372949283e-02  4.7937968696334328e-02  4.7957525345481901e-02  4.8279072249293439e-02  4.0862541241497491e-02  4.0028304539441568e-02  4.0213885432848318e-02  4.0983112962120150e-02  4.7245781886311275e-02  4.7139274255808036e-02  4.7324327365847491e-02  4.7204003587798665e-02  4.7135393848456525e-02  4.7453543584836527e-02  4.7489817835253259e-02  4.6767249706201594e-02  4.6520526634433665e-02  4.6335805393153240e-02  4.6143756718959456e-02  4.6034704617934144e-02  4.7008513551216935e-02  4.6929010459457313e-02  4.6844161440900971e-02  4.6694170047081505e-02  4.8014339958505306e-02  4.8154270483790708e-02  4.8022534143159379e-02  4.7895733429644476e-02  4.8032339164115492e-02  4.8117506852200800e-02  4.7992023168305066e-02  4.8141079433807341e-02  4.7755607074733496e-02  4.7773289826530688e-02  4.7733494434838694e-02  4.8015329800652998e-02  4.8274397317119112e-02  4.7694592249599363e-02  4.7799593840995865e-02  4.7844099359538678e-02  4.7741171374138393e-02  4.8755336782820874e-02  4.8948151051461261e-02  4.8579265590931120e-02  4.8200610793019683e-02  4.8368581291713411e-02  4.8161389122476750e-02  1.8330182246456873e-02  1.823203949