<?xml version="1.0"?>
<VTKFile type="UnstructuredGrid"  version="0.1"  >
<UnstructuredGrid>
<Piece  NumberOfPoints="6340" NumberOfCells="12376">
<Points>
<DataArray  type="Float64"  NumberOfComponents="3"  format="ascii">-0.01929900050163269 0.02065500058233738 0  -0.02002100087702274 0.02131699956953526 0  -0.02023999951779842 0.02033000066876411 0  -0.0208129994571209 0.02108499966561794 0  -0.01951999962329865 0.01973400078713894 0  -0.01915200054645538 0.02153199911117554 0  -0.01968099921941757 0.02227400057017803 0  -0.01921500079333782 0.02308700047433376 0  -0.02016700059175491 0.023029999807477 0  -0.01868800073862076 0.02225599996745586 0  -0.007822000421583652 0.01811300031840801 0  -0.008511999621987343 0.01894699968397617 0  -0.008837999776005745 0.01800600066781044 0  -0.009535999968647957 0.01888000033795834 0  -0.02663500048220158 0.07547099888324738 0  -0.02760099992156029 0.07591299712657928 0  -0.02776799909770489 0.07511399686336517 0  -0.0269750002771616 0.0688060000538826 0  -0.02766299992799759 0.06954099982976913 0  -0.02781900018453598 0.06863600015640259 0  -0.02861000038683414 0.06908000260591507 0  -0.01337399985641241 0.0870399996638298 0  -0.01429499965161085 0.08693099766969681 0  -0.01369400043040514 0.08624099940061569 0  -0.02060299925506115 0.08143900334835052 0  -0.01959099993109703 0.08158200234174728 0  -0.02012800052762032 0.08230199664831161 0  -0.02007099986076355 0.08071299642324448 0  -0.02188999950885773 0.02451400086283684 0  -0.02101900056004524 0.02461300045251846 0  -0.021399000659585 0.02539600059390068 0  -0.02173800021409988 0.02618600055575371 0  -0.02228699997067451 0.02530799992382526 0  -0.02051999978721142 0.0254989992827177 0  -0.02011100016534328 0.0246799997985363 0  -0.0191859994083643 0.02473600022494793 0  -0.01961099915206432 0.0255539994686842 0  -0.0215039998292923 0.02371199987828732 0  -0.02245800010859966 0.02366499975323677 0  -0.02187000028789043 0.02247999981045723 0  -0.02135599963366985 0.02180299907922745 0  -0.02108499966561794 0.02288400009274483 0  -0.02055099979043007 0.02210699953138828 0  -0.01592599973082542 0.02195299975574017 0  -0.01643699966371059 0.02107100002467632 0  -0.01541499979794025 0.02106899954378605 0  -0.01687600091099739 0.02205099910497665 0  -0.01782600022852421 0.02206199988722801 0  -0.01734000071883202 0.02294199913740158 0  0.03767900168895721 0.07948099821805954 0  0.03756200149655342 0.0785679966211319 0  0.03868899866938591 0.07874800264835358 0  0.03837199881672859 0.09076599776744843 0  0.03903099894523621 0.09107500314712524 0  0.03803300112485886 0.09158200025558472 0  0.02196400053799152 0.09973900020122528 0  0.02218399941921234 0.09889300167560577 0  0.02294700033962727 0.09923999756574631 0  0.0210609994828701 0.1001980006694794 0  0.02128900028765202 0.09917400032281876 0  -0.008352000266313553 0.09516800194978714 0  -0.007441999856382608 0.09536200016736984 0  -0.008086999878287315 0.09603100270032883 0  -0.007162000052630901 0.09623199701309204 0  -0.01934700086712837 0.09527699649333954 0  -0.01966699957847595 0.09460599720478058 0  -0.01862300001084805 0.09479299932718277 0  -0.020304000005126 0.09537199884653091 0  -0.01643100008368492 0.1009100005030632 0  -0.01675599999725819 0.1016910001635551 0  -0.01719699986279011 0.1009820029139519 0  -0.01191600039601326 0.0939129963517189 0  -0.01108200009912252 0.09400399774312973 0  -0.01171800028532743 0.09468699991703033 0  -0.01276300009340048 0.09383100271224976 0  -0.01212699990719557 0.09314899891614914 0  -0.01297399960458279 0.0930669978260994 0  -0.01551000028848648 0.09574999660253525 0  -0.01610399968922138 0.09640499949455261 0  -0.01640300080180168 0.0956529974937439 0  -0.01425100024789572 0.09442300349473953 0  -0.01513299997895956 0.09434200078248978 0  -0.01448999997228384 0.09366799890995026 0  0.009723000228404999 0.09231899678707123 0  0.01063999999314547 0.09224700182676315 0  0.01004699990153313 0.09304399788379669 0  0.00723899994045496 0.07824999839067459 0  0.007790999952703714 0.07737000286579132 0  0.008155000396072865 0.07817699760198593 0  -0.007519999984651804 0.01724000088870525 0  -0.006692999973893166 0.01746900007128716 0  -0.008399000391364098 0.01710899919271469 0  -0.009317000396549702 0.01697199977934361 0  -0.01303000003099442 0.01686999946832657 0  -0.01329299993813038 0.01795000024139881 0  -0.01390499994158745 0.01705300062894821 0  -0.01245899964123964 0.01777300052344799 0  -0.0124930003657937 0.01879899948835373 0  -0.01162400003522635 0.01795599982142448 0  -0.01203799992799759 0.0217250008136034 0  -0.01252300012856722 0.02076799981296062 0  -0.01157000008970499 0.02081800065934658 0  -0.01109000016003847 0.01996500045061111 0  -0.01053399965167046 0.02081100083887577 0  -0.01205400004982948 0.01981800049543381 0  -0.0130000002682209 0.02173200063407421 0  -0.01444599963724613 0.02094700001180172 0  -0.0149339996278286 0.0219080001115799 0  -0.01396699994802475 0.021807000041008 0  -0.00902200024574995 0.01982999965548515 0  -0.01096499990671873 0.03071299940347672 0  -0.01147300004959106 0.02984200045466423 0  -0.01046600006520748 0.02979700081050396 0  -0.005398000124841928 0.02953499928116798 0  -0.005903000012040138 0.0304579995572567 0  -0.006409999914467335 0.02958899922668934 0  -0.008042999543249607 0.01990900002419949 0  -0.005518999882042408 0.01939300075173378 0  -0.006510999985039234 0.01921799965202808 0  -0.005721000023186207 0.01854700036346912 0  -0.005799000151455402 0.01771599985659122 0  -0.004809999838471413 0.01799000054597855 0  0.04050000011920929 0.0869939997792244 0  0.04132800176739693 0.0864420011639595 0  0.04095799848437309 0.08762200176715851 0  0.03999700024724007 0.08781500160694122 0  0.01596600003540516 0.05871399864554405 0  0.01696600019931793 0.05858200043439865 0  0.01650599949061871 0.05948000028729439 0  0.02915599942207336 0.04343700036406517 0  0.02961700037121773 0.0423859991133213 0  0.03006500005722046 0.04308100044727325 0  0.03113899938762188 0.0474499985575676 0  0.03201600164175034 0.04674699902534485 0  0.03232700005173683 0.04745300114154816 0  0.03083200007677078 0.05080899968743324 0  0.02993299998342991 0.05094299837946892 0  0.03045599907636642 0.05000599846243858 0  0.03005699999630451 0.04923399910330772 0  0.03101900033652782 0.04907099902629852 0  0.02952099964022636 0.05015800148248672 0  0.02900700084865093 0.05108299851417542 0  0.02907899953424931 0.04941200092434883 0  0.02857499942183495 0.04868699982762337 0  0.02809399925172329 0.04957399889826775 0  0.02757400088012218 0.04883399978280067 0  0.03795700147747993 0.08934000134468079 0  0.03700499981641769 0.08941700309514999 0  0.03760800138115883 0.0886320024728775 0  0.03667899966239929 0.0886790007352829 0  0.008026000112295151 0.02466499991714954 0  0.008754000067710876 0.02512199990451336 0  0.008030000142753124 0.02573099918663502 0  0.008824000135064125 0.02608300000429153 0  0.02710199914872646 0.04972200095653534 0  0.02319600060582161 0.0519150011241436 0  0.02273100055754185 0.05280999839305878 0  0.02219800092279911 0.05204499885439873 0  0.02371999993920326 0.05267899855971336 0  0.02944499999284744 0.05186299979686737 0  0.01859099976718426 0.03541800007224083 0  0.01772600039839745 0.03530199825763702 0  0.01813500002026558 0.03440700098872185 0  0.01323099993169308 0.04075799882411957 0  0.01231699995696545 0.040778998285532 0  0.01277100015431643 0.0398860014975071 0  0.01185499969869852 0.03990799933671951 0  0.01140199974179268 0.04080000147223473 0  0.01139300037175417 0.03903499990701675 0  0.01231000013649464 0.03901499882340431 0  0.01277799997478724 0.04165200144052505 0  -0.02852199971675873 0.06995300203561783 0  -0.02740699984133244 0.07038100063800812 0  -0.02844199910759926 0.07075200229883194 0  -0.02667699940502644 0.06971800327301025 0  -0.02631600014865398 0.07057099789381027 0  -0.02525999955832958 0.07076100260019302 0  -0.02578599937260151 0.07147800177335739 0  -0.02463299967348576 0.07006300240755081 0  -0.02422299981117249 0.070933997631073 0  -0.02479000017046928 0.0716480016708374 0  -0.0286410003900528 0.06817899644374847 0  -0.01965999975800514 0.08315499871969223 0  -0.02066300064325333 0.08301900327205658 0  -0.01946300081908703 0.09163700044155121 0  -0.02039100043475628 0.09156700223684311 0  -0.01977800019085407 0.0908690020442009 0  -0.02070299908518791 0.09080299735069275 0  -0.02009500004351139 0.09009499847888947 0  -0.01871499978005886 0.09405700117349625 0  -0.0178420003503561 0.09413699805736542 0  -0.01766300015151501 0.09487300366163254 0  -0.01462600007653236 0.0861240029335022 0  -0.01193999964743853 0.08027300238609314 0  -0.01093299966305494 0.0804160013794899 0  -0.01148100011050701 0.08112999796867371 0  -0.01106599997729063 0.08197099715471268 0  -0.01049999985843897 0.08126399666070938 0  -0.01598300039768219 0.07804100215435028 0  -0.01648600026965141 0.07713399827480316 0  -0.01546999998390675 0.07729099690914154 0  -0.01445300038903952 0.07744699716567993 0  -0.01494599971920252 0.07654300332069397 0  -0.01905700005590916 0.08085999637842178 0  -0.01854000054299831 0.08012200146913528 0  -0.01955899968743324 0.07997000217437744 0  -0.02058099955320358 0.07981999963521957 0  -0.02538499981164932 0.07236800342798233 0  -0.02599599957466125 0.07475099712610245 0  -0.02557099983096123 0.07563599944114685 0  -0.02276900038123131 0.02429299987852573 0  -0.02307000011205673 0.02490000054240227 0  -0.02326799929141998 0.02549199946224689 0  -0.02348100021481514 0.02612899988889694 0  -0.02259000018239021 0.02613000012934208 0  -0.01967599987983704 0.02387800067663193 0  -0.01874200068414211 0.0239230003207922 0  -0.02061299979686737 0.02380299940705299 0  -0.02215499989688396 0.02305500023066998 0  -0.01737499982118607 0.01823000051081181 0  -0.01699800044298172 0.01899500004947186 0  -0.01814999990165234 0.01860000006854534 0  -0.01657900027930737 0.01785000041127205 0  -0.0182460006326437 0.02305700071156025 0  -0.0163940005
[...]
<PointData  Scalars="pressure"> 
<DataArray  type="Float64"  Name="pressure"  format="ascii">1.9286181065191699e-02  1.9302783391703167e-02  1.9251123879571640e-02  1.9281136181645994e-02  1.9233709870265230e-02  1.9296780792950274e-02  1.9310511476872516e-02  1.9347539720358430e-02  1.9325549659725133e-02  1.9324160886967028e-02  1.9487060161038419e-02  1.9487267213046451e-02  1.9457901090235312e-02  1.9447632034128803e-02  1.9076962075262757e-02  1.9284674841043424e-02  1.9558925674580660e-02  1.7936544057816056e-02  1.8378230304125005e-02  1.7942862769097102e-02  1.8515578482321868e-02  1.9165166114443473e-02  1.9466113340957006e-02  1.9144035427298034e-02  1.9907512232525751e-02  1.9881958330229259e-02  1.9984290125989693e-02  1.9795724376215719e-02  1.9393450906861419e-02  1.9374304301254468e-02  1.9413501728038483e-02  1.9467058711062850e-02  1.9457640456594268e-02  1.9449681253256232e-02  1.9405227142761911e-02  1.9426619998770350e-02  1.9472198552270219e-02  1.9360476806107287e-02  1.9352078618464566e-02  1.9293635367974196e-02  1.9289728924366062e-02  1.9341680745885749e-02  1.9318041001474662e-02  1.9347841356714614e-02  1.9320451473951943e-02  1.9332836466038672e-02  1.9338800176616801e-02  1.9329863831814793e-02  1.9361686024075384e-02  3.0582611174548996e-02  2.8521429620969808e-02  2.9682901325617971e-02  5.8730747051260357e-02  6.0377205433186032e-02  6.0812145255289669e-02  4.0823741685446405e-02  4.0915315629936160e-02  4.2673263489072480e-02  3.9254732141251955e-02  3.9321257106444185e-02  2.0869731394173474e-02  2.0970258742281124e-02  2.1302668942134000e-02  2.1451694450419549e-02  2.1170116153721080e-02  2.1092911830748025e-02  2.1179452584552942e-02  2.1232433487896496e-02  2.2409371577288478e-02  2.2502809030658530e-02  2.2157360246023688e-02  2.0562382582119149e-02  2.0509127608604988e-02  2.0815902253165319e-02  2.0633414141616742e-02  2.0342134039912141e-02  2.0440294816129662e-02  2.1310994910869269e-02  2.1458144302754417e-02  2.1312704336425105e-02  2.0938657856002942e-02  2.0983440848491096e-02  2.0772125966356171e-02  1.6629027450194199e-02  1.6858002427759866e-02  1.7898050678854166e-02  2.6446377615373315e-03  2.8837416441353861e-03  3.5132684921982058e-03  1.9460799704321186e-02  1.9481031857005657e-02  1.9446616206715742e-02  1.9421776294460423e-02  1.9290113331712502e-02  1.9332240982965425e-02  1.9288956421959443e-02  1.9345761276004139e-02  1.9356670232441600e-02  1.9368678392930792e-02  1.9406881794144321e-02  1.9374147396145749e-02  1.9400015369763858e-02  1.9402816733957585e-02  1.9435541489736537e-02  1.9372655437671825e-02  1.9383691267965263e-02  1.9343107478422009e-02  1.9358435858001746e-02  1.9368345606883601e-02  1.9479371588527861e-02  2.0333856173705853e-02  2.0188985813231357e-02  2.0179529505386297e-02  2.0190084618389732e-02  2.0270704731498765e-02  2.0166392439223413e-02  1.9523308863810949e-02  1.9628271463946391e-02  1.9572342391424184e-02  1.9563702806658652e-02  1.9513361807941373e-02  1.9569635354188236e-02  5.0549257050358114e-02  5.0162230683542704e-02  5.2613702335564318e-02  5.2135691815240734e-02  1.8038762271881198e-02  1.8732225850896900e-02  1.8105028643021388e-02  2.6859043959412066e-02  2.6860080000602301e-02  2.7089860694776511e-02  2.8115267827001262e-02  2.8325370239671289e-02  2.8516981801007105e-02  2.8520376780445431e-02  2.8283233390596841e-02  2.8318924257328092e-02  2.8120657874734729e-02  2.8306549708977589e-02  2.8082449818017201e-02  2.7993306545115310e-02  2.7880772315029757e-02  2.7666725162746479e-02  2.7584558409322335e-02  2.7361733468453938e-02  5.4158922788661697e-02  5.3213859548066067e-02  5.1786088897022839e-02  5.0760461673429624e-02  2.0907328586589120e-02  2.0978708057476043e-02  2.0977989647090592e-02  2.1048395159045531e-02  2.7228048343031157e-02  2.5012227387074835e-02  2.4541680887524508e-02  2.4344768984186971e-02  2.5206887186462010e-02  2.8197922259745968e-02  2.3097872606508509e-02  2.2905257941943771e-02  2.2858924299703737e-02  2.2098013358768757e-02  2.1798940990177262e-02  2.2028043463949404e-02  2.1747116596062363e-02  2.1499328198160632e-02  2.1679310360485531e-02  2.1939940608735817e-02  2.1832309775782634e-02  1.8782611641725580e-02  1.8249662498142145e-02  1.8508493783830238e-02  1.8218344106821396e-02  1.8325719669831673e-02  1.8342960878307578e-02  1.8467197120588058e-02  1.8215047641328398e-02  1.8359637923336738e-02  1.8489930328258457e-02  1.8039230250294053e-02  2.0052412027923405e-02  2.0064499859283234e-02  2.0760159043968149e-02  2.0765335792783585e-02  2.0692844808208016e-02  2.0704599197543437e-02  2.0635397070294187e-02  2.1067420753253761e-02  2.1064759313057589e-02  2.1178293784889675e-02  1.9453988004786114e-02  1.6652978650095539e-02  1.5802274058742065e-02  1.6537880371771188e-02  1.6477361644834959e-02  1.5732242868826928e-02  1.8548306062285254e-02  1.8563025429502993e-02  1.8191995268285674e-02  1.7699144876895952e-02  1.7803277434341021e-02  1.9750597260015858e-02  1.9585539298989554e-02  1.9662634798304303e-02  1.9704261740989257e-02  1.8619400941935212e-02  1.9031267633299410e-02  1.9125554092223516e-02  1.9375061164679387e-02  1.9407798325781135e-02  1.9461412690714990e-02  1.9518422769897778e-02  1.9519967953254114e-02  1.9372584628278969e-02  1.9389415700757445e-02  1.9344743612279350e-02  1.9319567802252302e-02  1.9265533915749637e-02  1.9291374467464512e-02  1.9245616807880783e-02  1.9278835132028375e-02  1.9359056335346327e-02  1.9375914215607082e-02  1.9420699113245142e-02  1.9412842849111843e-02  2.0345993211886911e-02  2.0511672444718902e-02  2.0521473870367714e-02  1.9437815421786082e-02  1.9547120775783716e-02  1.9617391929336342e-02  1.9578750453724258e-02  1.9594096934380849e-02  1.9531255994388555e-02  1.9695123662236441e-02  1.9779314045636376e-02  1.9747022785833436e-02  5.6662635990289756e-02  5.8448634609231664e-02  5.9172817332554105e-02  4.5381882609974021e-02  4.7963859375164314e-02  4.7013694921550303e-02  3.4503239098267829e-02  3.3950703150682535e-02  3.2774194129573483e-02  2.8160662439417582e-02  6.0980201552372687e-02  6.0758369342448409e-02  5.8773662085849492e-02  5.8632071495296000e-02  6.1016685495706414e-02  6.0945142340232079e-02  4.9638407235186595e-02  4.8364267364818442e-02  4.7274267479526240e-02  4.6014501393649807e-02  5.6620613724788382e-02  5.8308899179647385e-02  5.6657004414302513e-02  5.6175779666119592e-02  5.4413721113589421e-02  5.3447506119541327e-02  5.5635997344981522e-02  3.6308476746557156e-02  3.5222580580696772e-02  3.5210685773688272e-02  3.7635238941754766e-02  3.8255967626121490e-02  3.6990330830254062e-02  3.7762907532589762e-02  2.0790055831262165e-02  2.1087712186523673e-02  2.0796329266428382e-02  2.0465033642959041e-02  2.0480921345698344e-02  2.2726969226353665e-02  2.1942382685869802e-02  2.2363665721007432e-02  2.1720760443737261e-02  2.1309795879897730e-02  2.2001689665261760e-02  2.1745995957825698e-02  2.1970393849199493e-02  2.2002365963895536e-02  2.1890330002749911e-02  2.2127166088640321e-02  2.2067496617305865e-02  2.1954294195619117e-02  2.2016717768319066e-02  1.7896452226033310e-02  1.7593352916668775e-02  1.7269983158722926e-02  1.9224679000735719e-02  1.9608924249209285e-02  1.9465512750124828e-02  2.0839211949920583e-02  2.0248079324365807e-02  2.1077506712085969e-02  2.1333752130157653e-02  2.1791578461391133e-02  2.1621404718575314e-02  2.1653802346798250e-02  2.1492935055715950e-02  2.1686274063319279e-02  2.0850819608892152e-02  2.0897292340580693e-02  2.1101556732971552e-02  2.0702289290728516e-02  2.1310493620474061e-02  2.1308175350355930e-02  2.1309574164636795e-02  2.1873698883987935e-02  2.1426454053306045e-02  2.1163297608983812e-02  2.1121198204536992e-02  2.5674458554894718e-02  2.5296415306399762e-02  2.5595315175114958e-02  2.5166991378156256e-02  2.3889628587150512e-02  2.3858713752507726e-02  2.4381274133806981e-02  2.4365254419464126e-02  2.7480512048971704e-02  2.7491283359471829e-02  2.7769601836280702e-02  2.7228175077891294e-02  2.7269498759635771e-02  2.6897768882728386e-02  2.7043582048389303e-02  2.6905071964454297e-02  2.7055486450411354e-02  2.6886792510558338e-02  3.2013191560912327e-02  3.2157511958744715e-02  3.2596630224216598e-02  3.1612211011613295e-02  3.1506192726451311e-02  2.9073754033307409e-02  2.8751150176924256e-02  2.8747906191127950e-02  2.7369747286206818e-02  2.7026762672630003e-02  2.7358924450284403e-02  2.5442857515546327e-02  2.5717936192619962e-02  2.5901895315632421e-02  1.7163043104457813e-02  1.8458035927725533e-02  1.7449623236438463e-02  1.6196272123095490e-02  1.6572642752997517e-02  1.7900155030861550e-02  3.4094800493287628e-03  3.0872582984963343e-03  4.1382650525879083e-03  2.4408559832727467e-03  4.4798504953669771e-03  1.0197198428335122e-02  1.0630899510130465e-02  9.3984443421497796e-03  1.9466823360854417e-02  1.9366974047169833e-02  2.0100786908581088e-02  2.4760020107279720e-02  2.3990320197972453e-02  2.4571674328855327e-02  2.3823473552102840e-02  2.3310205398999598e-02  2.2798788378659049e-02  2.2657678907947065e-02  2.0485773655315599e-02  2.0669790748782904e-02  2.0642832905265099e-02  1.2050932970687302e-02  1.1945475955699641e-02  1.2085110974239442e-02  1.2219257928417999e-02  1.2569787550178492e-02  1.2391143639749642e-02  1.2069367008717524e-02  1.2574490073113828e-02  1.8275195614767967e-02  1.8329412801484694e-02  1.8233589518134981e-02  1.7104413459794361e-02  2.4920395875974111e-02  2.4363323669088111e-02  2.4970513097725709e-02  2.5401437113378333e-02  2.4819823686387174e-02  2.5244632842717697e-02  2.5810501198766201e-02  2.6362231500226155e-02  2.6142534042544234e-02  2.6120046287649735e-02  2.6171560859425465e-02  2.6699880441589503e-02  2.5671020065652028e-02  2.0140013909201046e-02  1.8910336290284338e-02  2.0154470627891975e-02  2.3534140775740856e-02  2.2594807689735964e-02  2.2523368352871879e-02  1.4235912586283900e-02  1.3564004245116078e-02  1.3223902570063333e-02  1.2575661329607489e-02  1.5812593649324420e-02  1.5345104463101444e-02  1.3025780787559407e-02  1.4076061209699203e-02  1.5635130135377436e-02  1.8148524944411201e-02  2.0938225297548158e-02  2.1930812335448913e-02  2.0577463436540308e-02  1.9518273227461067e-02  1.9000528861297952e-02  4.1544823647268261e-03  4.4852292574056943e-03  3.2983982639449919e-03  3.9964629704813889e-03  3.2923015016538826e-03  3.8369799027653320e-03  7.9449788918909206e-03  6.8301208313345171e-03  7.3206631324520405e-03  1.9324840929572026e-02  1.9287084030621258e-02  1.9287863130660339e-02  1.9304878100342947e-02  1.9351959327578230e-02  1.9318036831359638e-02  1.9345928113450678e-02  1.9416275337740582e-02  1.9408302773441223e-02  1.9387550775542252e-02  1.9387353147643512e-02  1.9425362168408594e-02  2.0196545327088554e-02  2.0047795071793002e-02  2.0047902509788842e-02  2.0193804658650352e-02  2.0044030879276656e-02  1.9931197766346137e-02  2.0042732658000842e-02  1.9942037067290211e-02  2.0047983096222570e-02  1.9960761680114451e-02  2.0286463330880571e-02  2.0003366536382426e-02  2.0002041153503076e-02  1.9923841576713924e-02  2.0005062221313839e-02  2.0083601672971650e-02  1.9526052408380158e-02  1.9573022168157261e-02  1.7773304070013193e-02  1.8246412450812155e-02  1.7454005316135765e-02  1.7545621040080908e-02  1.7420458027165110e-02  2.0082855345085297e-02  2.0701200699318835e-02  2.0540770666946394e-02  2.0092278908231787e-02  1.9680629004469964e-02  2.0089426924659884e-02  2.8926528992668153e-02  2.8693279097552676e-02  2.8318538221940203e-02  2.6956719010114073e-02  2.9308648223831588e-02  2.8920637702152023e-02  2.9638732666337139e-02  4.8317771965631938e-02  4.2085435496431907e-02  4.2674759673507048e-02  4.4466713094840030e-02  4.5477280425721182e-02  2.9438785111202310e-02  2.9807493333595100e-02  2.9935244290145498e-02  2.9269994614287625e-02  2.9550964842342691e-02  2.9128213627225456e-02  2.8965632176932529e-02  2.8454922876625849e-02  2.8741440766439384e-02  2.8765310669639568e-02  2.8937723417832236e-02  2.8686402946639964e-02  2.8999681609418418e-02  2.8260266938027280e-02  2.8409082266762944e-02  2.8604471701550685e-02  2.9006749959240775e-02  2.9049711913176870e-02  2.8826619272454498e-02  2.8753109906402209e-02  2.7748118990770298e-02  2.8184809661286409e-02  2.7861979352688849e-02  2.7478110987728337e-02  2.7953570957975675e-02  2.7565078052088143e-02  2.9439773492377513e-02  2.9947358738416228e-02  2.9884297780645646e-02  2.9810424513771954e-02  2.9962521600843995e-02  1.6394442945452885e-02  1.5691853815133855e-02  1.5592169544727204e-02  2.1233638032204398e-02  2.1114270060557890e-02  2.1910907885897349e-02  2.0224557906306354e-02  1.0346815296390269e-02  9.3720635470800825e-03  1.0012977326724543e-02  9.7697507921338800e-03  1.0764880129758826e-02  1.1246790153563377e-02  1.4607098657963481e-02  1.5082292012451967e-02  1.4959694412213342e-02  1.4175594629767113e-02  1.4282797761763361e-02  1.3758459874387736e-02  1.4087840027765412e-02  1.3754792721294082e-02  1.4516959225884259e-02  1.4113466591923286e-02  1.4044054414039685e-02  1.3242006585704076e-02  1.3363501582643940e-02  1.4002022547708076e-02  1.4753419741537252e-02  1.4780940021564395e-02  1.0906909052731707e-02  1.1860367731077015e-02  1.1607422305106141e-02  2.0660528044101435e-02  2.1113873487469792e-02  2.0295905048117201e-02  1.4943424856084339e-02  1.5834607211503572e-02  2.7140485725097311e-02  2.8713536769678260e-02  2.8752673791148882e-02  2.8965518638695543e-02  2.8731081610810932e-02  2.8729529166919465e-02  2.8935132975675883e-02  2.8550674592667944e-02  2.8016527077634704e-02  2.8107546115279432e-02  2.8509750177651640e-02  2.7330788470784885e-02  2.7627584763456042e-02  2.7401179047758038e-02  2.7687173538279295e-02  2.7001173635360979e-02  2.6818515777128623e-02  2.4789761073834335e-02  2.4415213181390602e-02  2.4228437541842070e-02  2.7047596930947635e-02  2.7238513739410775e-02  2.7791623432765634e-02  2.7916351504779308e-02  4.9376105653480058e-02  2.1110093626417949e-02  2.1055004625172909e-02  2.1113709812737275e-02  2.1244957595615670e-02  2.1235072534314420e-02  2.1188763280566292e-02  2.1174357056463484e-02  2.0704119683100423e-02  2.0705506732661590e-02  2.0625622696882499e-02  2.0620754046952218e-02  2.0697241235286407e-02  2.0772763253016767e-02  2.0442862607456612e-02  2.0441386764977802e-02  2.0348098665947931e-02  2.0536850421365195e-02  2.0346162869621529e-02  2.0438648061896145e-02  2.0254829274735292e-02  2.0256873106671312e-02  2.4734558028647290e-02  2.4926526114535864e-02  2.4207615332647252e-02  2.6439367993275922e-02  2.5848560976330242e-02  2.6230988115381163e-02  2.6026069117618424e-02  2.6550829903576424e-02  2.5650816551249015e-02  2.8060325858679080e-02  2.7852195299566070e-02  2.7650083718000460e-02  2.3497904363400476e-02  2.2735904781224787e-02  2.3366044927286896e-02  2.6585541050052997e-02  2.6507742058544080e-02  2.7104756543327037e-02  2.2774652389273890e-02  2.2692810878615549e-02  2.2883836210670264e-02  2.3026319154236960e-02  2.2895286026745190e-02  2.3161640862654043e-02  2.2764558293764330e-02  2.2731441704028535e-02  2.2948573575342440e-02  2.5351283453527294e-02  2.5579794879957533e-02  2.5301103398547790e-02  2.5071310411188451e-02  2.5133064977217248e-02  2.4891183443360713e-02  2.4689713175685649e-02  2.4637141688710049e-02  2.4431700803022448e-02  2.4166516125970920e-02  2.4141473673188224e-02  2.3968135621588442e-02  2.3911861128549018e-02  2.4154437059495139e-02  2.4196527046882334e-02  2.3933884657282564e-02  2.1207117438165661e-02  2.1259093783480919e-02  2.1089591321357688e-02  2.1122210037566896e-02  2.2231289553613087e-02  2.2674452423168331e-02  2.2248710082225474e-02  2.1798664788722236e-02  2.2219145098167650e-02  2.2564823535870589e-02  2.2302028505374556e-02  2.2401192382949041e-02  2.2595569378640913e-02  2.2639472755738327e-02  2.1427817343309730e-02  2.1833083140417431e-02  2.1822725161704262e-02  2.2219695786270872e-02  2.2195313410647309e-02  2.2155656671180156e-02  2.2483335986094054e-02  2.1846580951421550e-02  2.1510291341666814e-02  1.8281844763343325e-02  1.8042630042295976e-02  1.8193197293917003e-02  8.1084425394175388e-03  8.9461483861519586e-03  7.9445309854420734e-03  1.8638030321208983e-02  1.8762172521512806e-02  1.8360526295760037e-02  1.8045979523094752e-02  2.0312639963421752e-02  2.0205409384969147e-02  2.0227509443794860e-02  2.0409696753308192e-02  2.0362463211032307e-02  1.8527421226238405e-02  1.8883918984691703e-02  2.0263914037841946e-02  2.0478722426977139e-02  2.0658657460441925e-02  1.9950672133724416e-02  2.0316278985709570e-02  2.0271760843042400e-02  2.0394579808947787e-02  2.0099849389771947e-02  2.0129735951431783e-02  2.1239576134341805e-02  2.1100569627802934e-02  2.0947479226603991e-02  2.0939583097935699e-02  2.0814862852313966e-02  2.0840795768008895e-02  2.0762790266893483e-02  2.0722195594032440e-02  2.0862542535345890e-02  2.0826797525224885e-02  2.0614312375058418e-02  2.0558690706884979e-02  1.9493187709610026e-02  2.1063168124868484e-02  1.6400994761117636e-02  1.6931917626387342e-02  1.6203434291816102e-02  1.5603438962776217e-02  1.7171192238402418e-02  1.6480695589033367e-02  1.7165504976126955e-02  1.3011142934766642e-02  1.3947401995007686e-02  1.2893187908423615e-02  1.4909162531841817e-02  1.4065710133626771e-02  1.6503953388396185e-02  1.7419991966374282e-02  1.7565173818396597e-02  1.8011028580364963e-02  1.8777665049964871e-02  1.4824549895988463e-02  1.4897804777674550e-02  1.9138977363629892e-02  1.9179462533683231e-02  1.8233820391362364e-02  1.8561879188408903e-02  1.8234360953511851e-02  8.8399874312543314e-03  9.7187124841752667e-03  1.8519206634063444e-02  1.8791634053209841e-02  1.8174655540673636e-02  1.9070911444298892e-02  1.8916618622602702e-02  1.9026430108289118e-02  1.8648467392574489e-02  1.8651180505044149e-02  1.8800984132746813e-02  1.9635758446008809e-02  1.9573077647254446e-02  1.9505230721163801e-02  1.9414278414593165e-02  1.9202774422847194e-02  1.9347201368436873e-02  1.9201663266968080e-02  1.9409080269901416e-02  1.9165874914256503e-02  1.9581101007909121e-02  1.9552360965640996e-02  1.9679479935980265e-02  1.9585546465526668e-02  1.9574134913672617e-02  1.9283313801462809e-02  1.9237749680439870e-02  1.9299512186164443e-02  1.9301693100412992e-02  1.9312641003611873e-02  1.9292550563086756e-02  1.9383607891806875e-02  2.0114535814503488e-02  2.0195589581055086e-02  2.0233791799046878e-02  2.0065027043788014e-02  1.9941234111546087e-02  1.9831627773058080e-02  1.9884543489441367e-02  1.9909025635576991e-02  1.9958344446634323e-02  2.0059194956033907e-02  2.0001602186780661e-02  2.0157915241427113e-02  2.0086072805138265e-02  1.9860416553563798e-02  2.0223592338527142e-02  2.0248140238166672e-02  2.0323619501035534e-02  2.0164211045741523e-02  2.0251449783616184e-02  2.0151654733656682e-02  2.0044941296973956e-02  1.9527321976110873e-02  1.9556494742801842e-02  1.9475690288038722e-02  2.0093780141612061e-02  1.9973246897972495e-02  1.9843693318934506e-02  1.9950192074407715e-02  2.0518419147554257e-02  2.0690810961184997e-02  2.0322032215435298e-02  2.0495375258043749e-02  2.0456979036237902e-02  2.0157030042901834e-02  2.0179150105778462e-02  2.0416792197012083e-02  2.0490364186214499e-02  2.0658088788294421e-02  2.0824253901236094e-02  2.0703367981599760e-02  2.0633750636423497e-02  2.0578671041219569e-02  2.0503124627851033e-02  2.0681241870115788e-02  1.9630281571113288e-02  1.9552241005822237e-02  1.9646566392052763e-02  1.9761103786408850e-02  1.9660609487335855e-02  1.9628146780136607e-02  1.9696135711366511e-02  1.9605517811649716e-02  1.9912776970631908e-02  1.9905149812104381e-02  1.9916801417011784e-02  1.9683093234938900e-02  1.9546601327880969e-02  1.9923788093973133e-02  1.9818912556421285e-02  1.9807684392368768e-02  1.9840680281843916e-02  1.9477658843667874e-02  1.9478929694214414e-02  1.9487589254157840e-02  1.9663525046118853e-02  1.9647289795068891e-02  1.9716558134318767e-02  5.6440484511008429e-02  5.761002883