<?xml version="1.0"?>
<VTKFile type="UnstructuredGrid"  version="0.1"  >
<UnstructuredGrid>
<Piece  NumberOfPoints="6340" NumberOfCells="12376">
<Points>
<DataArray  type="Float64"  NumberOfComponents="3"  format="ascii">-0.01941199973225594 0.02071999944746494 0  -0.02006999962031841 0.02136999927461147 0  -0.0203000009059906 0.02039000019431114 0  -0.02083100005984306 0.02112100087106228 0  -0.01964600011706352 0.01980100013315678 0  -0.0192479994148016 0.02159399911761284 0  -0.01972500048577785 0.02232399955391884 0  -0.01926399953663349 0.02314000017940998 0  -0.02017400041222572 0.02305799908936024 0  -0.01879299990832806 0.0223190002143383 0  -0.00886400043964386 0.01757300086319447 0  -0.009482000023126602 0.0184909999370575 0  -0.009816000238060951 0.01755299977958202 0  -0.01044000033289194 0.01851099915802479 0  -0.02521800063550472 0.07473299652338028 0  -0.0261400006711483 0.07513999938964844 0  -0.02629899978637695 0.07435700297355652 0  -0.02568599954247475 0.06818699836730957 0  -0.0263069998472929 0.06889600306749344 0  -0.0264929998666048 0.06799899786710739 0  -0.02721999958157539 0.06842000037431717 0  -0.01272699981927872 0.08655799925327301 0  -0.01361900009214878 0.08641000092029572 0  -0.01303500030189753 0.08573299646377563 0  -0.01949699968099594 0.08074600249528885 0  -0.0185369998216629 0.08091399818658829 0  -0.01906299963593483 0.08161299675703049 0  -0.01897799968719482 0.08004099875688553 0  -0.02181000076234341 0.02447099983692169 0  -0.02095700055360794 0.02459800057113171 0  -0.02132200077176094 0.02535399980843067 0  -0.02164500020444393 0.02611999958753586 0  -0.02219099923968315 0.02523799985647202 0  -0.02046100050210953 0.02548599988222122 0  -0.02008499950170517 0.02468900009989738 0  -0.01920199953019619 0.02476800046861172 0  -0.01959099993109703 0.02556500025093555 0  -0.02144099958240986 0.02369399927556515 0  -0.02237300015985966 0.02361599914729595 0  -0.02181000076234341 0.02246999926865101 0  -0.02133399993181229 0.02181500010192394 0  -0.02105299942195415 0.02288899943232536 0  -0.02056000009179115 0.0221369992941618 0  -0.01623399928212166 0.02200499922037125 0  -0.01673500053584576 0.02112800069153309 0  -0.0157919991761446 0.02110200002789497 0  -0.01710700057446957 0.02212600037455559 0  -0.01799399964511395 0.02212999947369099 0  -0.01751399971544743 0.02301100082695484 0  0.04253999888896942 0.07980900257825851 0  0.04217299818992615 0.07898200303316116 0  0.04348799958825111 0.07916399836540222 0  0.04568000137805939 0.09014099836349487 0  0.04648600146174431 0.09043700248003006 0  0.04538600146770477 0.09093999862670898 0  0.02767799980938435 0.09903500229120255 0  0.02783099934458733 0.09820800274610519 0  0.02876099944114685 0.09854000061750412 0  0.02668300084769726 0.09949000179767609 0  0.02682299911975861 0.09848900139331818 0  -0.006575000006705523 0.09524700045585632 0  -0.005611000116914511 0.09539999812841415 0  -0.006196999922394753 0.09607899934053421 0  -0.005226000212132931 0.0962349995970726 0  -0.01827800087630749 0.09479299932718277 0  -0.01864200085401535 0.09407900273799896 0  -0.01758100092411041 0.09432700276374817 0  -0.01923299953341484 0.09484300017356873 0  -0.01444400008767843 0.1009450033307076 0  -0.01466900017112494 0.1017440035939217 0  -0.01527400035411119 0.1009820029139519 0  -0.01065200008451939 0.09385599941015244 0  -0.009726000018417835 0.09399899840354919 0  -0.01030999980866909 0.09467999637126923 0  -0.0115750003606081 0.09370599687099457 0  -0.01099099963903427 0.09302599728107452 0  -0.01191399991512299 0.09287700057029724 0  -0.01425000000745058 0.095551997423172 0  -0.01479300018399954 0.09620700031518936 0  -0.01520599983632565 0.09538599848747253 0  -0.01308900024741888 0.09422899782657623 0  -0.01402600016444921 0.09408099949359894 0  -0.0134290000423789 0.09341000020503998 0  0.012512999586761 0.09189800173044205 0  0.01357300020754337 0.09182000160217285 0  0.01298000011593103 0.09260199964046478 0  0.007891999557614326 0.07819200307130814 0  0.008357999846339226 0.07737799733877182 0  0.008949999697506428 0.07811299711465836 0  -0.008609999902546406 0.01665000058710575 0  -0.007826000452041626 0.01680300012230873 0  -0.009434999898076057 0.01659199967980385 0  -0.01029600016772747 0.01653200015425682 0  -0.01374000031501055 0.01671000011265278 0  -0.01394500024616718 0.01782700046896935 0  -0.01453899964690208 0.0169489998370409 0  -0.0131810000166297 0.01759300008416176 0  -0.01317800022661686 0.01864599995315075 0  -0.01240400038659573 0.01772000081837177 0  -0.01265799999237061 0.02160299941897392 0  -0.01313799992203712 0.02065500058233738 0  -0.01225700043141842 0.02064500004053116 0  -0.01184200029820204 0.01973799988627434 0  -0.01130000036209822 0.02056399919092655 0  -0.01273899991065264 0.01965700089931488 0  -0.01354399975389242 0.0216669999063015 0  -0.01490299962460995 0.02095199935138226 0  -0.0153200002387166 0.021934999153018 0  -0.01443199999630451 0.02180100046098232 0  -0.009930999949574471 0.01944299973547459 0  -0.01135899964720011 0.03070499934256077 0  -0.01185700017958879 0.02984699979424477 0  -0.01093100011348724 0.02974200062453747 0  -0.006242000032216311 0.02909399941563606 0  -0.006684999912977219 0.03008699975907803 0  -0.007184999994933605 0.02923900075256824 0  -0.00901500042527914 0.01943800039589405 0  -0.006663999985903502 0.01866599917411804 0  -0.007602000143378973 0.01858600042760372 0  -0.00687999976798892 0.01781499944627285 0  -0.006978000048547983 0.01696700043976307 0  -0.006039999891072512 0.01714999973773956 0  0.04758999869227409 0.08650100231170654 0  0.04837600141763687 0.08601699769496918 0  0.04826800152659416 0.08707199990749359 0  0.04721099883317947 0.08724799752235413 0  0.01540500018745661 0.05811100080609322 0  0.01642199978232384 0.05793699994683266 0  0.01599200069904327 0.05886000022292137 0  0.02822900004684925 0.04218899831175804 0  0.02864699997007847 0.04111199826002121 0  0.0291569996625185 0.04179399833083153 0  0.03060399927198887 0.04618699848651886 0  0.03148400038480759 0.04545199871063232 0  0.03187299892306328 0.04617900028824806 0  0.03054199926555157 0.04968500137329102 0  0.02959699928760529 0.04981200024485588 0  0.03007999993860722 0.04883800074458122 0  0.02959099970757961 0.04804300144314766 0  0.03060499951243401 0.04786499962210655 0  0.02909299917519093 0.0490030013024807 0  0.02861800044775009 0.04996500164270401 0  0.02855999954044819 0.04823499917984009 0  0.02796999923884869 0.04750800132751465 0  0.02752400003373623 0.04842200130224228 0  0.02692000009119511 0.04769299924373627 0  0.04502199962735176 0.08875299990177155 0  0.04392300173640251 0.08883599936962128 0  0.04452899843454361 0.08806499838829041 0  0.04345300048589706 0.08811900019645691 0  0.006566000171005726 0.02288799919188023 0  0.007304000202566385 0.02334900014102459 0  0.006599000189453363 0.0239889994263649 0  0.007400000002235174 0.02434000000357628 0  0.02648499980568886 0.04860800132155418 0  0.02251899987459183 0.05096900090575218 0  0.02208800055086613 0.05189000070095062 0  0.02148500084877014 0.05114100128412247 0  0.02311700023710728 0.05171899870038033 0  0.02914699912071228 0.05077899992465973 0  0.01734299957752228 0.03418299928307533 0  0.01648700051009655 0.03404700011014938 0  0.01686700060963631 0.03312699869275093 0  0.01218200009316206 0.03960299864411354 0  0.01127600017935038 0.03960299864411354 0  0.01170200016349554 0.03868699818849564 0  0.01079500000923872 0.03868899866938591 0  0.01036900002509356 0.03960400074720383 0  0.01031200028955936 0.03777199983596802 0  0.01122099999338388 0.03777299821376801 0  0.0117560001090169 0.04051899909973145 0  -0.02711199969053268 0.06928300112485886 0  -0.0260390006005764 0.06973099708557129 0  -0.02701300010085106 0.0700720027089119 0  -0.02536300010979176 0.06909500062465668 0  -0.02499699965119362 0.06994400173425674 0  -0.02398600056767464 0.07015600055456161 0  -0.02446700073778629 0.07085099816322327 0  -0.02340999990701675 0.06948199868202209 0  -0.02299599908292294 0.07035099714994431 0  -0.02351400069892406 0.07104100286960602 0  -0.02729300037026405 0.06752999871969223 0  -0.01863699965178967 0.08247199654579163 0  -0.01958700083196163 0.08230999857187271 0  -0.01857399940490723 0.09101799875497818 0  -0.01947899907827377 0.09090700000524521 0  -0.01889399997889996 0.09021600335836411 0  -0.0197950005531311 0.09010999649763107 0  -0.019208999350667 0.08941300213336945 0  -0.01772099919617176 0.09355799853801727 0  -0.01683899946510792 0.09368599951267242 0  -0.01658999919891357 0.0944719985127449 0  -0.01392500009387732 0.08558399975299835 0  -0.01122799981385469 0.07981699705123901 0  -0.01027199998497963 0.07998500019311905 0  -0.01081200037151575 0.08067899942398071 0  -0.01044400036334991 0.08152599632740021 0  -0.009883999824523926 0.08083900064229965 0  -0.0150560000911355 0.07750900089740753 0  -0.01553600002080202 0.07660999894142151 0  -0.01456599961966276 0.0767889991402626 0  -0.01359600014984608 0.07696700096130371 0  -0.01406599953770638 0.07607100158929825 0  -0.01801400072872639 0.08021300286054611 0  -0.01751100085675716 0.07949600368738174 0  -0.01848199963569641 0.07931900024414062 0  -0.01945400051772594 0.07914400100708008 0  -0.02406200021505356 0.07173500210046768 0  -0.02460700087249279 0.0740479975938797 0  -0.02420200034976006 0.07492099702358246 0  -0.02267099916934967 0.02422299981117249 0  -0.02295999974012375 0.02480999939143658 0  -0.02316300012171268 0.02538999915122986 0  -0.02338100038468838 0.02601500041782856 0  -0.02248300053179264 0.02603800036013126 0  -0.01968700066208839 0.02390900067985058 0  -0.01879600062966347 0.02397700026631355 0  -0.02058300003409386 0.0238099992275238 0  -0.02208299934864044 0.0230260007083416 0  -0.01769799925386906 0.01828799955546856 0  -0.01732400059700012 0.01905000023543835 0  -0.01840000040829182 0.01868000067770481 0  -0.01697699911892414 0.0178849995136261 0  -0.01835699938237667 0.02311999909579754 0  -0.01
[...]
<PointData  Scalars="pressure"> 
<DataArray  type="Float64"  Name="pressure"  format="ascii">7.0084639022561776e-02  7.0071359811699332e-02  7.0096294351813401e-02  7.0082505886564506e-02  7.0085671858566956e-02  7.0065158941721425e-02  7.0030900754369615e-02  6.9974656406073615e-02  6.9967954934958415e-02  7.0027074136358433e-02  6.8397918033497040e-02  6.8557846301501954e-02  6.8569943311956261e-02  6.8739446474889734e-02  4.3778257308633300e-02  4.3537503414141386e-02  4.4411127550817983e-02  5.0618034823171308e-02  5.0089717337767778e-02  5.0809782096406783e-02  5.0575558697682772e-02  2.3377723367131158e-02  2.4239502425670235e-02  2.4140261690471058e-02  3.4188452256729659e-02  3.3319105707655887e-02  3.2960487494275173e-02  3.4601183868447523e-02  6.9739286263212463e-02  6.9770441237303901e-02  6.9649095024591962e-02  6.9517341344454309e-02  6.9612341593280461e-02  6.9675765079827548e-02  6.9795629004176005e-02  6.9810906065320005e-02  6.9698808942071241e-02  6.9854293591649130e-02  6.9822960047923557e-02  6.9981578068735756e-02  7.0041828793075286e-02  6.9954638532597105e-02  7.0026841200468357e-02  6.9883299452833766e-02  6.9941190011718904e-02  6.9833993425207963e-02  6.9959248799290066e-02  7.0012019587194094e-02  6.9947527080872929e-02  1.9445415839877756e-03  9.3399388410790054e-04  2.2981226169418484e-03  8.8472265017702466e-03  8.4896007288019111e-03  1.0190459846765218e-02  2.6963419192478050e-02  2.5765918193638510e-02  2.7262805260674032e-02  2.6528675284707381e-02  2.5252022629799004e-02  1.5363259968894320e-02  1.4779988976068668e-02  1.4755016240995952e-02  1.4191606721850342e-02  2.2035800199117411e-02  2.2595812679224697e-02  2.2052652215290465e-02  2.2289876799557778e-02  1.6739751107813661e-02  1.6349187394980643e-02  1.7021161907800838e-02  1.8577780908156833e-02  1.7921143370315973e-02  1.7892664598078277e-02  1.9208958955636568e-02  1.9212556805637382e-02  1.9864105385848818e-02  1.9656567901621045e-02  1.9571851734940953e-02  2.0271292547772962e-02  1.9797855941534156e-02  2.0396818413471216e-02  2.0466644478196450e-02  3.2862047306719492e-03  3.6040801149792357e-03  4.5026705123171118e-03  9.1405097451505747e-03  9.2531418332296913e-03  9.0115237614182761e-03  6.8350527854544096e-02  6.8226625779342645e-02  6.8489034034814017e-02  6.8646409413807882e-02  6.9314082218089310e-02  6.9413155403710847e-02  6.9475524916414538e-02  6.9243530542618351e-02  6.9304307270813548e-02  6.9094222861246224e-02  6.9324551291943662e-02  6.9382367719960203e-02  6.9204115229493171e-02  6.9088095579236466e-02  6.9026986112449382e-02  6.9273461660281352e-02  6.9470910186789137e-02  6.9696373150655744e-02  6.9770876447301053e-02  6.9638233087689655e-02  6.8697546310760263e-02  6.9763285404588579e-02  6.9611228688309323e-02  6.9655212155526100e-02  6.9141518999399132e-02  6.9445374598246762e-02  6.9369740923959353e-02  6.8528449631639315e-02  6.8087010956619592e-02  6.8233121164059662e-02  6.8073916448170069e-02  6.8093662390652426e-02  6.7956279745285370e-02  4.3765539898389929e-03  4.0041114244573255e-03  4.3091731476786761e-03  4.9939825542218517e-03  2.7330875723903896e-02  2.8648361294878379e-02  2.6662259688554211e-02  5.6152906152650860e-02  5.6164589224938652e-02  5.6232235900838763e-02  5.6223243004689824e-02  5.6282182090552260e-02  5.6362963274168378e-02  5.4772490255189037e-02  5.4307884310301646e-02  5.5132188955523964e-02  5.5328398710466749e-02  5.5737126642562584e-02  5.4608624734918933e-02  5.3671985069808560e-02  5.4774423090355379e-02  5.4842050500172927e-02  5.4077230832079257e-02  5.4157555077388862e-02  7.7466786935404489e-03  8.5569748371464548e-03  7.2565867891675401e-03  7.9178140675097881e-03  6.5009485004259959e-02  6.4714493899443129e-02  6.4802805223683591e-02  6.4488207379393495e-02  5.3261400200423296e-02  4.7064582767027525e-02  4.5250249353258186e-02  4.5746790841620373e-02  4.6593533146870154e-02  5.3250699764305250e-02  5.7870368344481588e-02  5.8141880226317888e-02  5.8347977618884897e-02  5.5699617414435257e-02  5.5904566294836575e-02  5.6676721405879683e-02  5.6919857242813378e-02  5.6115329315575439e-02  5.7911655873603730e-02  5.7613621628054480e-02  5.4830142751108139e-02  4.9843219322364435e-02  4.9284090283057101e-02  4.9057762280979411e-02  4.9701172212054182e-02  4.8768468828790920e-02  4.8209849971476246e-02  4.7636639602334448e-02  4.8695216480820251e-02  4.7622500937924764e-02  4.7100526860886303e-02  5.1448412012527305e-02  3.1727760892909712e-02  3.2552086294378169e-02  2.4474614648568316e-02  2.4953215306739097e-02  2.5156314764130015e-02  2.5629767633956135e-02  2.5864136543851533e-02  2.2569188564389664e-02  2.2066246546580497e-02  2.1486252845043720e-02  2.5029713050637222e-02  2.5967093885646469e-02  2.4521557358793029e-02  2.4857326243733074e-02  2.3921361132694559e-02  2.3526749910605025e-02  3.3135983385047925e-02  3.4568063578761160e-02  3.3075813242758940e-02  3.1521949415719314e-02  3.2900040688385666e-02  3.3648089845767268e-02  3.3965280385953187e-02  3.5005370533831043e-02  3.5935016058120120e-02  4.6565056050855209e-02  4.4311471549263244e-02  4.3195719139751981e-02  6.9723781379202446e-02  6.9626010314554412e-02  6.9529334465658718e-02  6.9418284179629780e-02  6.9474391593640453e-02  6.9897157208453908e-02  6.9901333129008536e-02  6.9880346945972130e-02  6.9914288176120415e-02  6.9953375884002800e-02  6.9965615141394155e-02  7.0018290354784851e-02  6.9867100506072505e-02  6.9969769346176811e-02  6.9892776729884559e-02  6.9809160123859668e-02  6.9866659383662919e-02  6.9671677480247010e-02  6.9826093618314419e-02  6.9698929239557506e-02  6.9137217297825238e-02  6.9043505482443132e-02  6.9046194544354705e-02  6.9166591758544074e-02  6.8908184691953187e-02  6.8920332351694868e-02  6.9061104949096314e-02  6.9102585054313673e-02  6.9206915049628559e-02  4.9375828503238003e-03  4.1004269788510713e-03  5.4819932985577099e-03  5.2192677339243697e-03  5.7022835924616880e-03  6.1783043636473561e-03  5.0121156081370938e-03  5.6316487942712360e-03  5.0164054540505938e-03  1.6924393391770760e-03  1.3668688379286819e-02  1.5512126028028889e-02  1.3485541480209386e-02  1.1792634655439196e-02  1.2484797892317677e-02  1.1357847748232366e-02  8.5259431271079919e-03  7.2902055667041239e-03  7.8110357725797780e-03  6.6413844136310142e-03  8.3144646608903430e-03  1.0076052506997316e-02  1.0570747213653763e-02  1.1768595837085883e-02  1.2252648532040888e-02  1.0760171351842360e-02  9.1293684536105611e-03  2.5296490730036102e-02  2.4577135312386613e-02  2.3913622802255483e-02  2.4004785610252814e-02  2.5332090923816875e-02  2.4466714775116281e-02  2.5980206660626226e-02  1.6620754545731344e-02  1.6575071097734723e-02  1.7247307642287386e-02  1.7268846507637103e-02  1.5360486746057986e-02  1.2067649430273841e-02  1.2413415151560976e-02  1.1843009381233022e-02  1.4150452727460482e-02  2.1612452057659968e-02  1.8242884831892865e-02  1.8935762865101697e-02  1.8552182136496124e-02  1.7790745005407376e-02  1.8041501333931381e-02  1.6924867994412649e-02  1.7554055883663159e-02  1.7561657574792309e-02  1.6959129613390488e-02  1.7583180605767312e-02  1.8013022405202306e-02  1.7211193779194490e-02  2.0122701120503458e-02  2.0308530595429246e-02  2.0877243839358760e-02  2.1061641816439391e-02  1.8561296348751141e-02  1.7207509952361939e-02  1.6530207751783904e-02  1.8198529996342847e-02  1.8871201863253719e-02  1.8264587705749728e-02  1.8341794802849733e-02  1.7644197222401299e-02  1.8527481221812744e-02  1.9161022468208187e-02  1.8471031846872949e-02  1.9852707000338074e-02  1.8413112413588246e-02  1.7792549752262157e-02  1.9044551787615209e-02  1.8746566837502802e-02  2.0171448253644888e-02  2.0333681928440740e-02  1.9106409599374437e-02  1.0491842040651424e-02  1.0731014008638570e-02  1.0861144022119545e-02  1.1081750914357702e-02  1.1288176465040219e-02  1.1447524445730148e-02  1.0937169399537226e-02  1.0751321423212508e-02  5.7778202290808631e-03  6.5057916231554928e-03  5.8824531042092629e-03  5.8978207012863760e-03  6.3495963360092906e-03  6.6177662919020908e-03  5.9389097231695286e-03  6.1376103699332472e-03  6.3995031052979847e-03  6.9811425497607457e-03  2.0427635577174967e-02  2.0960449635774529e-02  2.1581467758022992e-02  1.9893701414816993e-02  1.9233840260151104e-02  8.3893178357006271e-03  7.5842620489560151e-03  8.5768966537630685e-03  1.0985384271230213e-02  1.1172152783941420e-02  1.1674867983576042e-02  1.1151533728785135e-02  1.1349155532123862e-02  1.1003037655032136e-02  4.1363990091460969e-03  5.3719162697920750e-03  4.4667101077188603e-03  3.2429987793730179e-03  3.6009962780738534e-03  4.9001995195484607e-03  9.4263121354100973e-03  9.4353082598139029e-03  9.6698103207397221e-03  9.3380463035618085e-03  9.5710411194521727e-03  1.3153334080075414e-02  1.2780183937259500e-02  1.2240810177965116e-02  2.9967563342588086e-02  3.0720197453368913e-02  3.2055927073054942e-02  4.0414601066428711e-02  3.8996932030302307e-02  4.1242022050467439e-02  3.9844002894762830e-02  4.5671188615767890e-02  4.3879384195576084e-02  4.4582274266317348e-02  6.9924356221108666e-02  6.9995997091339315e-02  7.0096732641013043e-02  2.3337806830387716e-02  2.3913936688736707e-02  2.4722166990818278e-02  2.1259553583583970e-02  2.2029844798200859e-02  2.0944212413244623e-02  1.9907502178214385e-02  2.0657169461045542e-02  5.0576848953547806e-03  4.8345524481935836e-03  4.8776654798826291e-03  3.9295358353741133e-03  2.0424197762554899e-02  2.0905230118574404e-02  2.2424684755232488e-02  2.0045659412836019e-02  1.8549411806882157e-02  1.7978510560842417e-02  1.9583859885254330e-02  2.1370010617907085e-02  1.9085653941468616e-02  1.4389724093886280e-02  1.5242748984204465e-02  1.6782090869187392e-02  1.3137295637836898e-02  6.5163603937880166e-03  5.3316468250378841e-03  6.6538396927589161e-03  1.0005933516829768e-02  9.3565580691552241e-03  9.0736897046756210e-03  1.4961738183097146e-03  9.1564287419144421e-04  8.0781875496650887e-04  3.6035526193667127e-04  2.8531240874844432e-03  2.4503136836764631e-03  5.4869678187666410e-04  1.2555670666104079e-03  2.4427309796113909e-03  4.9461501657939487e-03  7.9993889655612972e-03  8.9851077898208519e-03  7.4091286875378731e-03  6.4234582829447769e-03  5.5387678201039882e-03  8.6193659406872611e-03  8.9464228916003447e-03  8.8221277548157784e-03  8.3093979409926341e-03  8.6375130230496623e-03  9.2553425677443200e-03  7.6103279331817273e-03  7.6869751985137640e-03  8.3726059909217943e-03  6.9761055924876192e-02  6.9757407518784051e-02  6.9624062083375154e-02  6.9730095114209356e-02  6.9435412933524010e-02  6.9145741215033599e-02  6.8998890191435930e-02  6.8940731563561536e-02  6.8921612788174574e-02  6.8912963867632251e-02  6.8813599744322426e-02  6.8731936375666630e-02  6.9550418024573832e-02  6.9503223809652889e-02  6.9453334692499410e-02  6.9463748576654952e-02  6.9543696314585526e-02  6.9414415681260888e-02  6.9509141521687426e-02  6.9339586732037092e-02  6.9429514111705531e-02  6.9218706419175921e-02  6.9163915924179850e-02  6.7969312752704139e-02  6.8157623567550452e-02  6.8175265093136747e-02  6.8377598029861014e-02  6.8112486257296379e-02  6.8391464816603006e-02  6.8365064797414568e-02  5.1691738250182147e-02  5.2073480594959559e-02  5.3067696666482568e-02  5.2577314699799607e-02  5.3015250967414121e-02  5.8036509049597423e-02  6.0049443750657704e-02  5.9769223443999542e-02  5.9406426288828959e-02  5.8402221623159292e-02  5.9847769255545455e-02  3.2215612635982133e-02  2.9323370038976889e-02  3.0264948955048873e-02  1.2705918767072645e-03  3.7715458620352103e-02  3.8959397859861723e-02  4.0599895730828714e-02  3.9391959499551505e-03  3.2882860936924501e-03  3.2355460040313731e-03  3.7018458213414710e-03  3.8249849350598178e-03  5.3318162449304325e-02  5.4242368377705089e-02  5.3254228974447690e-02  5.4310795473228111e-02  5.4582781076027903e-02  5.3075184007724763e-02  5.3779416530427344e-02  4.2007303978182746e-02  4.4402794423080927e-02  4.2298222966823354e-02  4.6620566205055662e-02  4.6318805729212709e-02  4.4749346906236054e-02  5.1325974121252609e-02  5.2720684098021206e-02  5.2047757822479175e-02  5.1659401639842291e-02  5.0335284858196973e-02  4.9983231679197916e-02  5.1167293673868783e-02  4.7747970089452196e-02  4.8673547696735889e-02  4.6623171572888561e-02  4.4334476026532045e-02  4.5215556094533545e-02  4.2778354786194975e-02  4.8496154044267908e-02  4.8762263893470534e-02  4.7233603876673025e-02  4.3119919162459386e-02  4.5921436016710893e-02  2.0509883668918982e-02  1.9565861033602489e-02  1.9766287624171149e-02  3.1003343237294281e-02  3.1840962046778644e-02  3.3140611220585356e-02  3.1304530582560317e-02  1.5843955885127586e-02  1.4731618186379747e-02  1.5656219952158004e-02  1.5060044329760845e-02  1.6082127450631319e-02  1.6831207021184742e-02  3.2391955224684008e-02  3.4655149428648217e-02  3.2400268745851328e-02  3.0268451489536601e-02  3.2470754928849120e-02  2.6501979562070437e-02  2.6397569654056430e-02  2.4829074165834950e-02  3.0217555190445826e-02  2.8232140612639619e-02  1.8786900680839391e-02  1.7875316794292703e-02  1.8166633298887569e-02  1.8564772435267354e-02  1.9541511388434067e-02  1.9862647514108447e-02  1.5899924452701875e-02  1.6791697291586676e-02  1.6434812842935211e-02  9.8554841393042100e-03  9.2732604421426699e-03  9.1618890359456313e-03  1.8699007638983620e-02  1.9355787124352899e-02  5.6140432098448607e-02  5.5077767813626548e-02  5.5804086524523407e-02  5.5321536618784674e-02  5.4260480429303766e-02  5.6197657453548981e-02  5.6092854458504843e-02  5.6009703291943262e-02  5.5982510670885326e-02  5.5846478662560088e-02  5.5519360303338761e-02  5.5736517275533373e-02  5.5745568442840010e-02  5.5370149065650139e-02  5.5399482392711467e-02  5.3373801532094534e-02  5.2329766904761911e-02  4.9799352121840272e-02  4.8353221431404608e-02  4.8823680097336605e-02  5.5738247395487363e-02  5.6015633462252142e-02  5.3928992069994540e-02  5.5399785242638319e-02  6.7331895310410199e-03  6.4188094058905645e-02  6.4373217383172560e-02  6.4115059480466335e-02  6.3376345666669012e-02  6.3486930809482811e-02  6.3698369536625096e-02  6.3850997770914880e-02  6.6195849745998014e-02  6.6261575475091469e-02  6.6500935031107100e-02  6.6419010799069367e-02  6.6133584855366634e-02  6.5906044756422269e-02  6.7041518745694431e-02  6.7182936955367881e-02  6.7381786657717574e-02  6.6827819994097343e-02  6.7562544797860918e-02  6.7363468372821825e-02  6.7725246559927024e-02  6.7530666606259282e-02  4.4714617858492720e-02  4.4127536706743305e-02  4.2691902101751250e-02  4.9237736864612115e-02  4.7946744640113323e-02  4.9596901303296768e-02  4.9911637689927568e-02  5.1051042217912138e-02  4.8360986895544814e-02  5.1976681006753456e-02  5.0420238946805557e-02  5.1042181072190676e-02  2.6201563956382627e-02  2.5794597659113839e-02  2.7615847486974182e-02  3.7697160422764164e-02  3.9413862188959245e-02  4.0329149920690914e-02  5.8674406752582328e-02  5.9045934566240958e-02  5.8668754077909113e-02  5.8237660221935494e-02  5.8382946654400532e-02  5.7950322125261654e-02  5.8156642602571529e-02  5.8406140406474821e-02  5.7892301219072663e-02  5.6304726914015106e-02  5.6215211142990426e-02  5.6206864981141261e-02  5.6308525544096821e-02  5.6391277396405683e-02  5.6197768630712776e-02  5.6190207150366205e-02  5.6432939562222902e-02  5.6801005935773786e-02  5.6876858198080527e-02  5.7078941485620753e-02  5.7225995626048722e-02  5.7114055276706294e-02  5.6828415439979713e-02  5.6659404949324185e-02  5.6957793660937263e-02  6.1718018209814381e-02  6.0979977383625560e-02  6.1400423845378006e-02  6.0559686796465569e-02  5.0752923922819798e-02  5.1047605413993141e-02  4.9796766772083459e-02  5.0551985687225257e-02  5.1755239928943909e-02  5.8692554584510420e-02  5.6460047348236397e-02  5.5545626903587268e-02  5.2830278891227711e-02  5.1919428372549432e-02  5.1551036121179450e-02  5.2698478303244298e-02  5.1603813594258051e-02  5.2735023012602383e-02  5.3725152441520860e-02  5.4716401543117764e-02  5.4648937771668384e-02  5.3774877266730976e-02  5.5017198469956743e-02  4.5248094128829283e-02  4.5558567193840264e-02  4.4222969250656968e-02  1.4926246436681799e-02  1.5892622974273404e-02  1.3765009139634837e-02  4.5955365955316921e-02  4.5450958765974374e-02  4.8114221636486799e-02  5.0193859639052797e-02  2.7292103042227057e-02  2.7464080448535825e-02  2.6583718836436270e-02  2.7089116034047109e-02  2.7959635581431119e-02  3.1698368561206718e-02  3.3110562688407848e-02  2.9159255161046779e-02  2.8657852052543339e-02  2.9488094766879424e-02  3.2048686008409710e-02  2.8896722109794163e-02  2.8214331443748325e-02  2.8581995598064843e-02  3.0573689367078955e-02  3.1400059066676381e-02  2.2860197009641568e-02  2.3273513671347317e-02  2.3488284576328275e-02  2.3653277137061404e-02  2.3931846222445843e-02  2.4287348168727341e-02  2.4598606802750778e-02  2.5295604911659768e-02  2.4805332859001321e-02  2.5504833399641290e-02  2.5356251662149998e-02  2.6087515332573693e-02  2.3505411347880274e-02  2.3044901134332642e-02  1.8599662703227233e-02  1.9555218558946541e-02  1.9173253528398639e-02  1.8281675658985749e-02  2.4212419655490154e-02  2.3041719586756073e-02  2.3363275511943567e-02  1.9080599310450100e-02  2.0194954570845258e-02  1.9627959241907810e-02  2.0706822616946917e-02  1.9509775604516087e-02  2.2199570130933838e-02  2.0457558686330986e-02  1.9889701989244810e-02  2.0729814024155243e-02  2.3209274018203569e-02  2.1411282660643214e-02  2.3013594681194825e-02  3.4384161097883059e-02  3.3012953048127534e-02  3.4521735234516314e-02  3.5970150193319110e-02  3.5921038447689319e-02  1.4882558373424823e-02  1.7154593639416751e-02  3.7399325158133892e-02  3.7339801512828806e-02  3.7355552672410267e-02  4.0661817848657668e-02  4.1001135976404125e-02  3.9674636225792405e-02  4.5273694734094309e-02  4.4483081917553714e-02  4.4041919470074790e-02  3.2618114643849942e-02  3.6328609697294206e-02  3.5327516003406147e-02  3.6669636757430006e-02  4.4752423368976758e-02  4.5309756741488925e-02  4.2841593383490077e-02  4.1846354803930362e-02  4.2483894024807137e-02  6.9335209136363804e-02  6.9304795549694126e-02  6.9190053456868073e-02  6.9228953997822099e-02  6.9190909879627963e-02  7.0073136321120402e-02  7.0059175801220883e-02  6.9983499222093196e-02  6.9905556687812800e-02  7.0010197877813138e-02  7.0040912788527296e-02  6.9809982641512183e-02  6.8205599543719894e-02  6.8276989104774269e-02  6.8010593758108945e-02  6.8443538787803168e-02  6.8607928844420990e-02  6.8766301813088904e-02  6.8798246041653202e-02  6.9258677820356801e-02  6.9293132047287931e-02  6.9179906403084301e-02  6.9120816673654814e-02  6.9045919309030590e-02  6.8969200723439553e-02  6.9220378300439700e-02  6.9132060812244434e-02  6.8890828452144254e-02  6.8708067461963576e-02  6.8796843730100046e-02  6.7710969331950685e-02  6.7941177436101965e-02  6.8158137704016603e-02  6.9567967965107697e-02  6.9593497973911497e-02  6.9771973472736046e-02  6.2702424862944209e-02  6.1924327502583566e-02  6.2039352763463097e-02  6.2755178214742829e-02  6.9556426119207176e-02  6.9685584132768083e-02  6.9334688084231016e-02  6.9405333184362789e-02  6.9258242832771350e-02  6.9307068557625418e-02  6.9382012426555409e-02  6.8834961421718008e-02  6.8633094120097049e-02  6.8564202650232886e-02  6.8487820815785388e-02  6.8272358753979565e-02  6.9321214914647003e-02  6.9146359091929607e-02  6.8982693980031429e-02  6.8985313352478886e-02  6.9590669385108092e-02  6.9666687342706757e-02  6.9562737832924576e-02  6.9470884123384855e-02  6.9521044520166039e-02  6.9271457991097352e-02  6.9355305105202561e-02  6.9368546123143929e-02  6.9445143240988258e-02  6.9428948387240397e-02  6.9451625369896242e-02  6.9416003918909563e-02  6.9292835180588999e-02  6.9446978528641720e-02  6.9337641777346401e-02  6.9383406361083866e-02  6.9265994478510132e-02  6.8954715222322716e-02  6.8833899326673637e-02  6.9089487513223205e-02  6.8906620844603916e-02  6.8750468966521247e-02  6.8754874698660443e-02  3.6702611243510470e-03  2.680432399