<?xml version="1.0"?>
<VTKFile type="UnstructuredGrid"  version="0.1"  >
<UnstructuredGrid>
<Piece  NumberOfPoints="6340" NumberOfCells="12376">
<Points>
<DataArray  type="Float64"  NumberOfComponents="3"  format="ascii">-0.01928899995982647 0.02077200077474117 0  -0.0200980007648468 0.02143500000238419 0  -0.02029000036418438 0.02043999917805195 0  -0.02098199911415577 0.02123799920082092 0  -0.01949799992144108 0.01985500007867813 0  -0.01915800012648106 0.02164500020444393 0  -0.01976699940860271 0.02239399962127209 0  -0.01928500086069107 0.02319999970495701 0  -0.02036100067198277 0.02318800054490566 0  -0.01868299953639507 0.02236899919807911 0  -0.007639000192284584 0.01872899942100048 0  -0.008322999812662601 0.0195119995623827 0  -0.00864499993622303 0.01857399940490723 0  -0.009336000308394432 0.01939399912953377 0  -0.02644000016152859 0.08050099760293961 0  -0.02738500013947487 0.08111900091171265 0  -0.02757499925792217 0.08031699806451797 0  -0.02736900001764297 0.07354900240898132 0  -0.0279569998383522 0.07444000244140625 0  -0.02821799926459789 0.07350999861955643 0  -0.02893999963998795 0.0741100013256073 0  -0.01236199960112572 0.09089799970388412 0  -0.01337200030684471 0.09089300036430359 0  -0.01287300046533346 0.09002400189638138 0  -0.02045300044119358 0.08574099838733673 0  -0.01944099925458431 0.08573299646377563 0  -0.01996099948883057 0.08659099787473679 0  -0.01993300020694733 0.0848810002207756 0  -0.02245499938726425 0.02486299909651279 0  -0.0214259997010231 0.02485599927604198 0  -0.02194499969482422 0.02573199942708015 0  -0.02241400070488453 0.0266100000590086 0  -0.02299300022423267 0.02575100027024746 0  -0.02090799994766712 0.02573000080883503 0  -0.02039200067520142 0.02486700005829334 0  -0.01934700086712837 0.02487899921834469 0  -0.01987499929964542 0.02573399990797043 0  -0.02192899957299232 0.02396499924361706 0  -0.02305799908936024 0.02403699979186058 0  -0.02226000092923641 0.02270999923348427 0  -0.02163900062441826 0.02199500054121017 0  -0.02139399945735931 0.02308299951255322 0  -0.02074399963021278 0.02226600050926208 0  -0.01575100049376488 0.02211900055408478 0  -0.01626400090754032 0.02123299986124039 0  -0.01521399989724159 0.02126899920403957 0  -0.01672899909317493 0.02218200080096722 0  -0.01775100082159042 0.02218399941921234 0  -0.017255999147892 0.02306400053203106 0  0.04252399876713753 0.08425299823284149 0  0.04225699976086617 0.08335600048303604 0  0.04356199875473976 0.0836929976940155 0  0.0447239987552166 0.09595099836587906 0  0.04551399871706963 0.09636600315570831 0  0.04450599849224091 0.09685999900102615 0  0.02827700041234493 0.1048149988055229 0  0.02835799939930439 0.1038589999079704 0  0.02926900051534176 0.1043279990553856 0  0.02736500091850758 0.1052619963884354 0  0.02741999924182892 0.1041020005941391 0  -0.004273000173270702 0.09966100007295609 0  -0.003264999948441982 0.09965799748897552 0  -0.003771000076085329 0.1005339995026588 0  -0.002765000099316239 0.1005309969186783 0  -0.0168089997023344 0.1012170016765594 0  -0.01733300089836121 0.1004720032215118 0  -0.01614099927246571 0.1005640029907227 0  -0.01783199980854988 0.1014439985156059 0  -0.01166000030934811 0.1075059995055199 0  -0.01176900044083595 0.1084539964795113 0  -0.01253500021994114 0.1076920032501221 0  -0.008794000372290611 0.09878700226545334 0  -0.007786000147461891 0.09878700226545334 0  -0.008294999599456787 0.09966400265693665 0  -0.009805000387132168 0.09878499805927277 0  -0.009296000003814697 0.09791000187397003 0  -0.01030700001865625 0.09790799766778946 0  -0.01234900020062923 0.1013559997081757 0  -0.01281800027936697 0.1021939963102341 0  -0.01340200006961823 0.1013389974832535 0  -0.01133299991488457 0.09964899718761444 0  -0.01236299984157085 0.09965000301599503 0  -0.01183999981731176 0.09878300130367279 0  0.01328600011765957 0.09516199678182602 0  0.01428900007158518 0.09516099840402603 0  0.01378499995917082 0.09602600336074829 0  0.007822999730706215 0.07872600108385086 0  0.008324000053107738 0.07785899937152863 0  0.008825000375509262 0.07872500270605087 0  -0.007340000011026859 0.01789000071585178 0  -0.006519000045955181 0.01815200038254261 0  -0.008209999650716782 0.01771700009703636 0  -0.009116999804973602 0.01753699965775013 0  -0.01279000006616116 0.01724000088870525 0  -0.01305700000375509 0.0182889997959137 0  -0.01366499997675419 0.01738400012254715 0  -0.01222600042819977 0.01815400086343288 0  -0.01226000022143126 0.01915599964559078 0  -0.01140000019222498 0.01837800070643425 0  -0.01181699987500906 0.02204900048673153 0  -0.01229800004512072 0.02108900062739849 0  -0.01134900003671646 0.02118100039660931 0  -0.01087400037795305 0.02037299983203411 0  -0.01032499969005585 0.02122999913990498 0  -0.01182700041681528 0.02017699927091599 0  -0.01277799997478724 0.0220160000026226 0  -0.01422000024467707 0.02118499949574471 0  -0.01473200041800737 0.02211200073361397 0  -0.01374499965459108 0.02205000072717667 0  -0.008828000165522099 0.02035100013017654 0  -0.01077899988740683 0.03091800026595592 0  -0.01128299999982119 0.03004099987447262 0  -0.01027700025588274 0.03003899939358234 0  -0.005251999944448471 0.03003500029444695 0  -0.005752000026404858 0.03091399930417538 0  -0.006252999883145094 0.03003700077533722 0  -0.007860000245273113 0.02047700062394142 0  -0.005355999805033207 0.02009199932217598 0  -0.006341000087559223 0.01987499929964542 0  -0.005555999930948019 0.01925400085747242 0  -0.005632000043988228 0.018435999751091 0  -0.004650000017136335 0.01875000074505806 0  0.04643699899315834 0.09192100167274475 0  0.04733499884605408 0.09149099886417389 0  0.04701200127601624 0.09260500222444534 0  0.04595699906349182 0.09269600361585617 0  0.01680500060319901 0.05958700180053711 0  0.01781499944627285 0.05956999957561493 0  0.0173140000551939 0.06043799966573715 0  0.03072899952530861 0.04544299840927124 0  0.03123500011861324 0.04441700130701065 0  0.03166399896144867 0.04518400132656097 0  0.03272699937224388 0.04979399964213371 0  0.03365800157189369 0.04917699843645096 0  0.03399699926376343 0.04994599893689156 0  0.03243999928236008 0.05323899909853935 0  0.03146899864077568 0.05325600132346153 0  0.03201999887824059 0.05235299840569496 0  0.03158599883317947 0.05150499939918518 0  0.03261300176382065 0.05145499855279922 0  0.0310210008174181 0.05239300057291985 0  0.03047999925911427 0.05328499898314476 0  0.03054100088775158 0.05156600102782249 0  0.03001200035214424 0.05076099932193756 0  0.02949799969792366 0.05161499977111816 0  0.02896299958229065 0.0507970005273819 0  0.04399000108242035 0.09426899999380112 0  0.04295000061392784 0.09427300095558167 0  0.04346700012683868 0.09342300146818161 0  0.04244700074195862 0.09339399635791779 0  0.008728000335395336 0.0254490002989769 0  0.009522999636828899 0.02590000070631504 0  0.008725999854505062 0.02649899944663048 0  0.009592999704182148 0.02684600092470646 0  0.02845899946987629 0.05165300145745277 0  0.02437400072813034 0.05345200002193451 0  0.02387000061571598 0.05431700125336647 0  0.02335800044238567 0.05346899852156639 0  0.02488799951970577 0.05429799854755402 0  0.03096099942922592 0.054152000695467 0  0.02013999968767166 0.03627799823880196 0  0.01921400055289268 0.03612500056624413 0  0.01966300047934055 0.03525299951434135 0  0.01430500019341707 0.04137900099158287 0  0.01330799981951714 0.04137999936938286 0  0.0138100003823638 0.0405069999396801 0  0.01281199976801872 0.04050799831748009 0  0.01231100037693977 0.04137999936938286 0  0.01231500040739775 0.0396369993686676 0  0.01331400033086538 0.03963600099086761 0  0.01380399987101555 0.04225200042128563 0  -0.02875399962067604 0.07502000033855438 0  -0.02760899998247623 0.07528799772262573 0  -0.02858399972319603 0.07585299760103226 0  -0.02696700021624565 0.07446400076150894 0  -0.02651499956846237 0.07530699670314789 0  -0.02545499987900257 0.07533200085163116 0  -0.02589100040495396 0.07618000358343124 0  -0.02491799928247929 0.07448799908161163 0  -0.0244159996509552 0.07534299790859222 0  -0.02489100024104118 0.07619299739599228 0  -0.02907999977469444 0.07316400110721588 0  -0.01945899985730648 0.08743900060653687 0  -0.02047899924218655 0.08744599670171738 0  -0.01785000041127205 0.09699500352144241 0  -0.01886500045657158 0.09703300148248672 0  -0.01836699992418289 0.09614700078964233 0  -0.01937800087034702 0.09618899971246719 0  -0.01888000033795834 0.09529600292444229 0  -0.01643400080502033 0.09971699863672256 0  -0.01545600034296513 0.09970500320196152 0  -0.01504900027066469 0.100552000105381 0  -0.01388099975883961 0.09002000093460083 0  -0.01183299999684095 0.08310899883508682 0  -0.01082499977201223 0.0831030011177063 0  -0.01133800018578768 0.08396399766206741 0  -0.01084600016474724 0.08482500165700912 0  -0.01033200044184923 0.08396100252866745 0  -0.01584099978208542 0.0814180001616478 0  -0.0163320004940033 0.08056099712848663 0  -0.01532499957829714 0.0805559977889061 0  -0.01431700028479099 0.08055099844932556 0  -0.01480900030583143 0.079694002866745 0  -0.01892299950122833 0.08487299829721451 0  -0.01840499974787235 0.08401100337505341 0  -0.01941500045359135 0.08401799947023392 0  -0.02042599953711033 0.08402799814939499 0  -0.02540200017392635 0.077053003013134 0  -0.02582699991762638 0.07964999973773956 0  -0.02537900023162365 0.08049800246953964 0  -0.02348100021481514 0.02473999932408333 0  -0.02388999983668327 0.02542000077664852 0  -0.02419500052928925 0.02611199952661991 0  -0.02452399954199791 0.02685699984431267 0  -0.02342800050973892 0.0266720000654459 0  -0.01985299959778786 0.02402899973094463 0  -0.01879799924790859 0.02402899973094463 0  -0.0209100004285574 0.02399699948728085 0  -0.02264700084924698 0.02335399948060513 0  -0.0171900000423193 0.01840499974787235 0  -0.01681200042366982 0.01917099952697754 0  -0.01799000054597855 0.01874000020325184 0  -0.01636799983680248 0.01806000061333179 0  -0.0182339996099472 0.02316999994218349 0  -0.0162439998
[...]
<PointData  Scalars="pressure"> 
<DataArray  type="Float64"  Name="pressure"  format="ascii">6.1626378582523421e-02  6.1502360662213949e-02  6.1548275520608348e-02  6.1426217307574284e-02  6.1653424062881254e-02  6.1561028835371290e-02  6.1430672068833375e-02  6.1388452841875399e-02  6.1282135066786245e-02  6.1534449900210800e-02  6.1655148092300452e-02  6.1704846884124594e-02  6.1828822792031848e-02  6.1859641221478447e-02  5.0191088830057087e-02  5.0043066748060153e-02  5.0231147065078488e-02  5.1797542855803770e-02  5.1611460087557105e-02  5.1770043178377773e-02  5.1641439431685060e-02  3.8472835145349396e-02  3.9577114803255167e-02  4.0126225886255383e-02  4.8103534995790509e-02  4.7879172463630923e-02  4.7597951335128383e-02  4.8359326615652877e-02  6.0832521092913608e-02  6.0940147804585239e-02  6.0739987890100454e-02  6.0531434059480596e-02  6.0629497708373822e-02  6.0864293903482414e-02  6.1055568838304701e-02  6.1167049055145209e-02  6.0983698896286936e-02  6.1025619841439775e-02  6.0882379315116135e-02  6.1131669510322319e-02  6.1280282141606163e-02  6.1200682821757842e-02  6.1359687467383857e-02  6.1768119782447319e-02  6.1815790900288527e-02  6.1861449733790277e-02  6.1705327690878442e-02  6.1630905768059033e-02  6.1580604563002156e-02  6.0912827043522286e-02  5.9933891604725301e-02  6.0696144228344302e-02  6.8315118462897742e-02  6.8687913604145806e-02  6.8485335915057746e-02  6.1457839502924036e-02  6.1941298393040689e-02  6.2168549432347994e-02  6.0707449917358630e-02  6.1357761539562794e-02  3.1204341018107158e-02  3.1836675314898116e-02  3.2219053525706212e-02  3.2888518246267477e-02  3.5724792707834775e-02  3.6160703992882307e-02  3.5433040637441578e-02  3.5813271823651315e-02  3.4697010908191543e-02  3.4691924020454790e-02  3.4670029947024519e-02  3.0334383689148023e-02  2.9982996339751843e-02  3.0669218333206565e-02  3.0861619466074915e-02  3.0247153539412368e-02  3.0939161190814114e-02  3.3420619249039253e-02  3.3861478684185320e-02  3.3953758127640232e-02  3.2193679109631522e-02  3.2964048716811974e-02  3.2370093781993146e-02  4.5431631910691030e-02  4.6943549304691953e-02  4.7581378348856188e-02  2.6426664884222906e-04  5.0661564778764490e-04  9.0395487225850002e-05  6.1664803134683005e-02  6.1494236062671771e-02  6.1809020288652136e-02  6.1924052771272067e-02  6.2129443702448037e-02  6.2094679799717202e-02  6.2097597958913606e-02  6.2091847831916694e-02  6.2048956196156267e-02  6.2074697481674622e-02  6.1798464860945375e-02  6.1903149419455017e-02  6.1854179905518475e-02  6.1900879929758693e-02  6.1772692228056848e-02  6.1964711760023536e-02  6.1834110513034987e-02  6.1899662334783438e-02  6.1809597726072044e-02  6.1833895676539491e-02  6.1692013221100080e-02  6.0743113955599601e-02  6.0909652399269015e-02  6.0790224138981774e-02  5.9469212017976475e-02  5.9524321565899221e-02  5.9816089266530509e-02  6.1509274520539836e-02  6.0954215687147068e-02  6.1248904793132705e-02  6.1120625582581217e-02  6.1260191890171005e-02  6.0959539516771029e-02  6.7346241248452315e-02  6.7485612002645329e-02  6.7759850531575502e-02  6.7512367738160842e-02  3.1568844920653871e-02  3.2268223515364305e-02  3.0701157855608209e-02  4.7188877406212915e-02  4.7219564421924640e-02  4.6992697463529631e-02  4.5910641772194213e-02  4.5653416246741477e-02  4.5555794648463724e-02  4.4444096599000033e-02  4.4466012692068999e-02  4.4887014673497615e-02  4.5305813376377527e-02  4.5240272839353224e-02  4.4899930486080999e-02  4.4415806578853023e-02  4.5282048834164250e-02  4.5582348006784443e-02  4.5181737577848276e-02  4.5493234775685273e-02  6.7531167795616145e-02  6.7194418453153978e-02  6.7029914810578461e-02  6.6674933000039169e-02  5.5439216297439080e-02  5.5154255410801989e-02  5.5179266455577011e-02  5.4880911855052034e-02  4.5027741306046767e-02  4.2702182823682377e-02  4.1769467022440679e-02  4.2289684306019308e-02  4.2235918791261103e-02  4.3983463163341757e-02  5.0842621299866608e-02  5.1030638143539780e-02  5.1126009913897791e-02  5.0087249165707864e-02  5.0219547026513378e-02  5.0525659187132282e-02  5.0674043406846586e-02  5.0366180311179974e-02  5.1105167178796485e-02  5.0951369027376001e-02  4.9738328109262583e-02  5.1477445973793931e-02  5.1442409587128708e-02  5.1303974358768274e-02  5.1623929415188910e-02  5.1434332823191306e-02  5.1410077585542939e-02  5.1208404632443638e-02  5.1579884912446985e-02  5.1365328006811206e-02  5.1188199586571850e-02  5.1825590294864797e-02  4.6992309248688295e-02  4.7281169547858479e-02  3.8256335780700014e-02  3.9012729304308345e-02  3.9319738964068297e-02  4.0024214838034186e-02  4.0418815504273883e-02  3.5874763296541975e-02  3.5243003627090826e-02  3.4864523436104404e-02  4.1186610485454397e-02  4.2962821557607611e-02  4.1480202808012387e-02  4.2223925855897668e-02  4.1440469369770382e-02  4.0723765402859290e-02  4.7342928666801676e-02  4.7799219414496247e-02  4.6986613362096322e-02  4.6015793874596533e-02  4.6520889128890915e-02  4.8085297350195497e-02  4.8219033657953686e-02  4.8556619916279534e-02  4.8743544097315419e-02  5.1021569482109688e-02  5.0386408503778124e-02  5.0152350968084229e-02  6.0731636141103995e-02  6.0591267814118936e-02  6.0444823137506862e-02  6.0272813421868347e-02  6.0413849605854830e-02  6.1229262983459778e-02  6.1334790288192928e-02  6.1120878089864321e-02  6.1016939807219207e-02  6.1898296798737533e-02  6.1920756351398473e-02  6.1835201709011495e-02  6.1973629995302232e-02  6.1488026667798082e-02  6.1653801718522944e-02  6.1595063969340100e-02  6.1524436399370226e-02  6.0833742487651145e-02  6.0671301879833286e-02  6.0730704667529584e-02  6.1730744954636395e-02  6.1429568669313865e-02  6.1253415141812213e-02  6.1402249161067540e-02  6.1264251700706457e-02  6.1450164028602677e-02  6.1056094886452097e-02  6.0840682756068812e-02  6.1048821650101087e-02  6.8454485762738826e-02  6.8873507147349938e-02  6.8897035322327799e-02  6.5563953609070885e-02  6.6235718119656922e-02  6.5847405969725964e-02  6.0953061992466639e-02  6.0472139368178704e-02  5.9941642423047947e-02  5.9684496894177708e-02  6.7986384585249138e-02  6.7690941430801441e-02  6.7657579281145991e-02  6.7862987864802368e-02  6.8166710738470276e-02  6.8330063551116482e-02  6.6308986517536472e-02  6.6097096608181777e-02  6.5721211423837689e-02  6.5457272288322918e-02  6.7977853901613303e-02  6.8050900961195829e-02  6.7666112250872351e-02  6.7422351983760148e-02  6.7021901351407689e-02  6.6985575154558788e-02  6.7655026520065289e-02  5.9019482850012871e-02  5.8132079508384581e-02  5.8668924087348293e-02  6.0893652543631244e-02  6.0645775923281034e-02  6.0152730509862959e-02  5.9912452736090242e-02  3.0533627213738312e-02  3.1191078304638298e-02  3.0498920092926554e-02  2.9864396928484638e-02  3.0835938794269442e-02  3.6681067122715197e-02  3.5617035074043554e-02  3.6714119727088455e-02  3.3205661405887758e-02  3.5329034774512783e-02  3.4348236570504002e-02  3.4443378376970181e-02  3.4370575422547456e-02  3.4614527594139237e-02  3.4808039402436222e-02  3.4510518677348612e-02  3.4570423743094859e-02  3.4291128782927838e-02  3.4184044631358601e-02  2.9657448124011818e-02  3.0368219331214384e-02  2.9919071613497973e-02  3.1132520637463169e-02  3.1001399481762087e-02  3.2110232957442468e-02  3.3235177427873464e-02  2.9729437860443408e-02  3.1217171927240710e-02  3.1865856172758972e-02  3.4060453251999107e-02  3.3912086285059415e-02  3.3653734596536644e-02  3.3127508099581406e-02  3.3437012760204492e-02  3.1039012459074256e-02  3.1556810481546696e-02  3.1791960899911695e-02  3.1543064080419139e-02  3.2497106173755327e-02  3.2148366692486656e-02  3.2896042783241562e-02  3.4396112969999927e-02  3.4258839564668617e-02  3.3513339054813428e-02  3.2267430608557690e-02  3.8895332206001262e-02  3.8755787228785296e-02  3.9554493187366195e-02  3.9328668285215751e-02  3.6692494116893348e-02  3.6942970513496563e-02  3.7345836765716525e-02  3.6975512106033261e-02  3.2048530702172499e-02  3.3298744213636190e-02  3.2721328241138374e-02  3.1474791702470611e-02  3.2486320618620800e-02  3.1662026419957384e-02  3.1033403903940784e-02  3.0731702672231902e-02  3.1926274441989887e-02  3.2523069937019040e-02  5.2553834459504511e-02  5.3793154754333744e-02  5.4066838972452139e-02  5.2297991662467722e-02  5.1201095771285038e-02  3.6889746171032141e-02  3.5723851835543892e-02  3.7133997183493903e-02  4.0618291094459372e-02  4.0925013901723054e-02  4.1649453959345981e-02  4.0166338689888462e-02  4.0963497484823003e-02  4.0319127592819290e-02  4.9054664387726848e-02  5.1761281395477518e-02  5.0095443792493574e-02  4.7226238022972433e-02  4.8434195388773971e-02  5.0943349736644244e-02  1.0586350234673136e-03  1.8664683373459390e-03  1.8539761415074241e-03  1.2602928760182541e-03  1.2532587183852195e-03  8.5466296110289844e-03  8.4411085651504847e-03  6.9326666759424727e-03  3.2997782118861251e-02  3.3774736852847306e-02  3.4478687120517687e-02  3.8786675273920143e-02  3.8117089924747230e-02  3.9243228104756424e-02  3.8605132324500246e-02  4.3064120758618228e-02  4.2091887046202640e-02  4.2760866388547175e-02  6.0557932322610322e-02  6.0492756061400824e-02  6.0358083051887279e-02  3.4602620848283902e-02  3.5444980638654040e-02  3.6027558671782346e-02  3.1411573388620072e-02  3.2260595631492694e-02  3.0630636655505160e-02  2.8938551322854070e-02  2.9915025023996192e-02  5.0842897698359528e-02  4.8571178771688969e-02  4.9740368076368127e-02  4.6618722759319921e-02  3.5899723846106596e-02  3.5123827336292893e-02  3.5670996787614581e-02  3.6564791540279459e-02  3.6281796013459475e-02  3.6954802893120753e-02  3.7118827753237653e-02  3.7326042291260922e-02  3.7579128134405185e-02  3.8749363648252919e-02  3.8815357110002946e-02  3.8378475541011273e-02  3.9413806902284979e-02  4.6858520420526711e-02  4.6745459027058331e-02  4.8212605889900909e-02  4.4157599012740065e-02  4.3361320986451832e-02  4.4459465719734081e-02  4.1889274206195690e-02  3.9828697938568150e-02  3.8007182989952988e-02  3.5893557154981534e-02  4.6666838491710515e-02  4.5394489529038573e-02  3.7910288346161870e-02  4.1577007849123493e-02  4.4372306974067133e-02  4.9097834570789631e-02  5.2071650262343651e-02  5.1831780667810662e-02  5.0770191930630912e-02  5.0798394060607877e-02  4.8040180491345036e-02  7.7318708445558992e-05  3.4756175474413842e-04  0.0000000000000000e+00  1.0619489771539203e-04  2.2725826238098601e-04  5.2680721965042698e-04  3.9683900490424112e-03  2.3943207549854684e-03  2.8287105931456280e-03  6.1945723412186550e-02  6.2023412011772701e-02  6.2057784997897041e-02  6.2025646480731250e-02  6.1985158395155115e-02  6.2096502951341982e-02  6.2086978167993676e-02  6.1912901399513651e-02  6.1990692734255483e-02  6.2040814854999370e-02  6.2007028354273838e-02  6.1941373698596792e-02  6.0974976369130844e-02  6.1058178114572106e-02  6.1101984313781936e-02  6.0991062158399979e-02  6.0817327875128488e-02  6.0833231244256582e-02  6.0619470001401547e-02  6.0617386904268662e-02  6.0378048545225903e-02  6.0357094919983138e-02  5.9155827640166969e-02  5.9638538623030604e-02  5.9658997419915205e-02  5.9962755740525044e-02  5.9679072265859473e-02  5.9328939722320354e-02  6.1506352988604213e-02  6.1271482437623474e-02  5.1960554669109857e-02  5.1960516257671840e-02  5.2338906664331636e-02  5.2206856192470702e-02  5.2222265093949574e-02  5.2784896285529966e-02  5.3768923426598100e-02  5.3554851048116928e-02  5.3084463594169545e-02  5.2501898449529912e-02  5.3205841592955029e-02  3.8426637490087151e-02  3.8111203734315285e-02  3.8530050038193861e-02  5.8714772617153813e-02  3.9012501391047408e-02  3.9328559032008700e-02  3.9515624413962253e-02  6.6961063394884196e-02  6.5375176232553428e-02  6.5853181072004441e-02  6.6008044895608770e-02  6.6461110060189191e-02  4.3158044811469454e-02  4.3288195020516257e-02  4.2826460310090561e-02  4.3663368387090083e-02  4.3394311198547975e-02  4.3228148446579268e-02  4.3611784467790883e-02  4.0199695194836779e-02  4.0761696877877451e-02  4.0330817782654654e-02  4.1241090938825047e-02  4.1221992915230467e-02  4.0834141030120674e-02  4.3029101264503544e-02  4.3564862151700343e-02  4.3156194593468110e-02  4.2797162815387702e-02  4.2300463158759107e-02  4.2297687998358119e-02  4.2742461751911875e-02  4.1716768259741785e-02  4.1994251165556801e-02  4.1307824255546112e-02  4.0552085902968778e-02  4.0875066446764877e-02  4.0120035385773634e-02  4.1282601499349800e-02  4.1078601755842839e-02  4.0786709485270974e-02  4.0024839058138709e-02  4.0849459523718316e-02  2.2796904937276936e-02  2.1037709448412614e-02  2.1530788698846788e-02  3.3460266662874528e-02  3.3993604585485851e-02  3.4837166665247492e-02  3.3780039310784098e-02  2.0004549400944045e-02  1.8494801569105768e-02  2.0513919071491339e-02  1.8091064562599388e-02  1.9718566223887402e-02  2.1595065444497442e-02  4.0130593529161498e-02  4.1260283153638777e-02  3.9848770280436249e-02  3.8998337241271434e-02  4.0438738572073314e-02  3.6376450950284273e-02  3.5987454680770241e-02  3.4816937375920141e-02  3.8681364132499105e-02  3.7502565884734107e-02  2.2349031739134100e-02  2.0488166452386020e-02  2.1824581121468699e-02  2.1157773248288603e-02  2.3020676798484428e-02  2.4165681071070984e-02  1.7924290595642302e-02  1.9698503117559649e-02  1.8176314042760808e-02  3.4871461867448578e-02  3.7350392625368420e-02  3.4962704363347488e-02  1.9246347487636060e-02  2.0679932378742001e-02  4.6880532239167522e-02  4.4342004812532441e-02  4.4689074015226704e-02  4.4259409082800877e-02  4.3996397088611944e-02  4.5082217576969605e-02  4.4690248670068905e-02  4.5107683354271622e-02  4.5886133704929971e-02  4.5628484890694467e-02  4.4802257339152170e-02  4.6472637894846611e-02  4.6157756769612521e-02  4.6196430366213855e-02  4.5899448890644352e-02  4.5360237565893580e-02  4.4824149882305826e-02  4.4971541547342189e-02  4.4213052513423029e-02  4.4754486112439429e-02  4.6782989423700447e-02  4.6700375688219706e-02  4.4834314116131271e-02  4.5626522529157304e-02  6.6469759821600860e-02  5.4603191817157365e-02  5.4823920621875265e-02  5.4625643536186444e-02  5.4063637076402909e-02  5.4061141092730039e-02  5.4282493977726241e-02  5.4350475384330521e-02  5.6506343325456648e-02  5.6511176864677826e-02  5.6908524054595802e-02  5.6904669924049925e-02  5.6517664055662095e-02  5.6139293563367089e-02  5.7746680341342643e-02  5.7767232321047746e-02  5.8171737986286429e-02  5.7331823399887821e-02  5.8194454188962880e-02  5.7798263417763049e-02  5.8583907397505158e-02  5.8565553485684797e-02  4.1274092411823463e-02  4.0783118378707191e-02  4.0225482195251044e-02  4.3056942674393361e-02  4.2656348544911085e-02  4.3483470875135571e-02  4.3887443437958334e-02  4.4197957588872336e-02  4.3104196850233339e-02  4.3441936594765106e-02  4.2819822186791034e-02  4.3235427083890200e-02  3.3862056683137326e-02  3.2873589851369012e-02  3.3923060861923114e-02  3.8472832371681809e-02  3.8840406464607548e-02  3.9325762267796702e-02  5.1250548178707694e-02  5.1452989319674361e-02  5.1219361302694985e-02  5.0972424813314626e-02  5.1117413575159261e-02  5.0837601145832509e-02  5.1078726631954681e-02  5.1204413982598590e-02  5.0913866348284584e-02  4.8927339654628303e-02  4.8684722788508578e-02  4.8891550084090012e-02  4.9113159367616135e-02  4.9135615244994886e-02  4.9205196692053144e-02  4.9342216874889280e-02  4.9479539555275232e-02  4.9740786700558766e-02  4.9925523064326127e-02  5.0022699831840670e-02  5.0140323329419909e-02  5.0132169202543445e-02  4.9934136025335502e-02  4.9844978985680036e-02  5.0102543229810545e-02  5.2871015541133916e-02  5.2495624393190957e-02  5.2720705943927339e-02  5.2320241145431642e-02  4.7437083934219013e-02  4.7424281479560057e-02  4.6817729119190736e-02  4.7478839165765986e-02  4.8034060472633970e-02  5.1368517876394584e-02  5.0395898172639043e-02  4.9970553071590956e-02  4.8524007994413823e-02  4.7985587121459158e-02  4.8176226504359543e-02  4.8680814825854998e-02  4.8094480219683530e-02  4.8594938262157453e-02  4.9124255754845671e-02  4.9621537621013956e-02  4.9517401153568230e-02  4.9225999013509776e-02  4.9871145407750346e-02  5.0919090308442820e-02  5.0912061603565359e-02  5.0608764445410168e-02  3.1162079759101076e-02  3.2658836354825770e-02  3.0510300774197655e-02  5.0968982539032134e-02  5.0785941651199415e-02  5.1244509237937663e-02  5.1789304799821495e-02  4.2762754708533829e-02  4.3256152221486002e-02  4.1987219715657831e-02  4.2297596554479219e-02  4.3433527009119573e-02  4.6953352121757094e-02  4.7664227013209680e-02  4.4528534420698415e-02  4.4246189881852034e-02  4.4960436447642034e-02  4.7310812815165762e-02  4.4485014105429412e-02  4.3916468805035705e-02  4.4016631791745357e-02  4.6277504953285253e-02  4.6627378902428337e-02  3.6252115319000078e-02  3.6545572456165895e-02  3.7140140887800432e-02  3.7076129575457716e-02  3.7668747962588643e-02  3.7989633007003087e-02  3.8683995245598880e-02  3.9719130770534405e-02  3.9275537540136060e-02  4.0295214413581748e-02  3.9620320823093365e-02  4.0747268708844320e-02  3.7909787964899980e-02  3.6379497090974953e-02  3.2861798149284742e-02  3.4056955284320220e-02  3.4103535239214951e-02  3.2604719720950512e-02  4.1965639617634609e-02  4.0531208013633288e-02  4.0931003205891880e-02  3.4036043408411917e-02  3.6062030096665566e-02  3.4846896997415250e-02  3.7105321882400399e-02  3.5121503881887735e-02  3.9373961455438367e-02  3.5352089815950449e-02  3.3772637911400685e-02  3.4983517498059995e-02  3.9015739840139008e-02  3.8075926576414981e-02  3.9767176026297910e-02  4.8222072543986624e-02  4.7810678073719699e-02  4.7453969289703704e-02  4.8197008749077411e-02  4.7844384460201062e-02  3.2110121346269428e-02  3.4173862626570177e-02  4.8620570991038427e-02  4.8829349680102857e-02  4.8336175094321650e-02  4.9923213809382791e-02  4.9975094186135369e-02  4.9661088211785220e-02  5.0874983295616572e-02  5.0744862460814263e-02  5.0640934754069375e-02  4.7770224909340651e-02  4.8890679817539903e-02  4.8644104173980462e-02  4.9012859591699445e-02  5.0395274162526850e-02  5.0439700373785021e-02  4.9977652969050476e-02  4.9735474771312134e-02  4.9948069406891248e-02  6.0174520590292713e-02  6.0079443045178642e-02  5.9921976884840078e-02  6.0056845544620513e-02  5.9891539325610491e-02  6.1738785384219216e-02  6.1759046088349076e-02  6.1853986932935076e-02  6.1931090611289583e-02  6.1747816722933502e-02  6.1775687732569182e-02  6.1710770950682774e-02  5.8848875856208009e-02  5.9028492711788269e-02  5.8661529750726485e-02  5.9187455962394483e-02  5.9332030253997775e-02  5.9467283651671768e-02  5.9630387846124761e-02  6.0684551869781868e-02  6.0828014622151802e-02  6.0608820310160155e-02  6.0444319217941266e-02  6.0360461317293071e-02  6.0176971888049241e-02  6.0528653613551697e-02  6.0529545338253977e-02  6.0081571999165688e-02  5.9772051202925836e-02  5.9884244510887426e-02  5.8272182656491311e-02  5.8487771417477727e-02  5.8681294506024030e-02  6.0783672479364032e-02  6.0910338872918836e-02  6.1464082071457218e-02  5.4468103058437876e-02  5.4078402108280604e-02  5.4132183030207025e-02  5.4488406700154680e-02  6.0734824203486436e-02  6.0594052548776915e-02  6.0786572587511099e-02  6.0683230519902799e-02  6.0583213090842865e-02  6.0873432488364000e-02  6.0954644338674376e-02  5.9977775511035003e-02  5.9647461874391135e-02  5.9505930102261358e-02  5.9343851291504934e-02  5.9114419009584335e-02  6.0473998710504191e-02  6.0340107604481857e-02  6.0170779803066801e-02  6.0054900060284445e-02  6.1252728628082960e-02  6.1400683695865758e-02  6.1333791338898588e-02  6.1262058078513586e-02  6.1386641292614785e-02  6.1367053081252343e-02  6.1321272735060342e-02  6.1452795015712831e-02  6.1191418951837481e-02  6.1209670871502961e-02  6.1122272394731191e-02  6.1386260257819097e-02  6.1505878554587425e-02  6.1002942804610459e-02  6.1030508893734355e-02  6.1171596414639588e-02  6.0841498373169212e-02  6.1620854248727853e-02  6.1648433267553426e-02  6.1588238012538911e-02  6.1057201756508514e-02  6.1053211739025615e-02  6.0824997135817092e-02  6.8483077468500533e-02  6.867547886