<?xml version="1.0"?>
<VTKFile type="UnstructuredGrid"  version="0.1"  >
<UnstructuredGrid>
<Piece  NumberOfPoints="6340" NumberOfCells="12376">
<Points>
<DataArray  type="Float64"  NumberOfComponents="3"  format="ascii">-0.01958099938929081 0.02078600041568279 0  -0.02037600055336952 0.02150700055062771 0  -0.02057999931275845 0.02050000056624413 0  -0.02124099992215633 0.02135399915277958 0  -0.0197950005531311 0.01985999941825867 0  -0.01944500021636486 0.02167100086808205 0  -0.02003799937665462 0.02246999926865101 0  -0.01955600082874298 0.02326799929141998 0  -0.02060299925506115 0.02331499941647053 0  -0.01896600052714348 0.02238599956035614 0  -0.007728999946266413 0.01808100007474422 0  -0.008430000394582748 0.01891300082206726 0  -0.008755999617278576 0.01797099970281124 0  -0.009465999901294708 0.01884200051426888 0  -0.02564099989831448 0.07978200167417526 0  -0.02656500041484833 0.08037000149488449 0  -0.02674500085413456 0.0795769989490509 0  -0.02625500038266182 0.07307399809360504 0  -0.02686499990522861 0.07391399890184402 0  -0.0270760003477335 0.07301999628543854 0  -0.02779999934136868 0.07357999682426453 0  -0.01160799991339445 0.09014099836349487 0  -0.01252199988812208 0.0901309996843338 0  -0.01203500013798475 0.08930400013923645 0  -0.01952599920332432 0.08508100360631943 0  -0.01852300018072128 0.08509200066328049 0  -0.01897099986672401 0.0859220027923584 0  -0.01907799951732159 0.08424799889326096 0  -0.02257899940013885 0.02512099966406822 0  -0.02160700038075447 0.02507600001990795 0  -0.02206999994814396 0.02598300017416477 0  -0.02248799987137318 0.02689200080931187 0  -0.02306200005114079 0.0260429996997118 0  -0.02108900062739849 0.0259419996291399 0  -0.02060499973595142 0.02503399923443794 0  -0.01958799920976162 0.02498799934983253 0  -0.02008800022304058 0.02589200064539909 0  -0.02210900001227856 0.0241909995675087 0  -0.02317499928176403 0.02430599927902222 0  -0.02246000058948994 0.02292999997735023 0  -0.02186799980700016 0.02216400019824505 0  -0.02160999923944473 0.02326400019228458 0  -0.02099199965596199 0.02239299938082695 0  -0.01602800004184246 0.0219739992171526 0  -0.01654800027608871 0.0210960004478693 0  -0.0154830003157258 0.021076999604702 0  -0.01702100038528442 0.02209099940955639 0  -0.01803800091147423 0.02214699983596802 0  -0.01754000037908554 0.02301999926567078 0  0.0405850000679493 0.08383399993181229 0  0.04042800143361092 0.08296799659729004 0  0.0416559986770153 0.08328799903392792 0  0.04166699945926666 0.09503699839115143 0  0.04239499941468239 0.09543400257825851 0  0.04139700159430504 0.09593699872493744 0  0.02534100040793419 0.1040220037102699 0  0.02548399940133095 0.1030799970030785 0  0.02632299996912479 0.1035270020365715 0  0.0244389995932579 0.1044759973883629 0  0.02456999942660332 0.1033329963684082 0  -0.005603999830782413 0.09847400337457657 0  -0.004718000069260597 0.09853500127792358 0  -0.005253999959677458 0.09935300052165985 0  -0.004362999927252531 0.0994189977645874 0  -0.01641299948096275 0.0999390035867691 0  -0.0167980007827282 0.09922699630260468 0  -0.0157689992338419 0.09932100027799606 0  -0.01732599921524525 0.1001489982008934 0  -0.01279599964618683 0.1058629974722862 0  -0.01299799978733063 0.1067579984664917 0  -0.01355800032615662 0.1060450002551079 0  -0.009347000159323215 0.09762399643659592 0  -0.008496000431478024 0.09761700034141541 0  -0.00902900006622076 0.09844700247049332 0  -0.01019799988716841 0.09762699902057648 0  -0.009665000252425671 0.09679800271987915 0  -0.01051499973982573 0.0968020036816597 0  -0.01264700014144182 0.1000669971108437 0  -0.0131419999524951 0.1008609980344772 0  -0.01353299990296364 0.1000550016760826 0  -0.01158700045198202 0.09845100343227386 0  -0.01245700009167194 0.09845399856567383 0  -0.01191299967467785 0.097632996737957 0  0.01165799982845783 0.09474699944257736 0  0.01261700037866831 0.09473100304603577 0  0.01207699999213219 0.09559000283479691 0  0.007542999926954508 0.07864399999380112 0  0.008097999729216099 0.07780600339174271 0  0.008500999771058559 0.07862699776887894 0  -0.007420000154525042 0.01720999926328659 0  -0.006581000052392483 0.01744800060987473 0  -0.008309000171720982 0.01707600057125092 0  -0.009236999787390232 0.01693600043654442 0  -0.01298999972641468 0.01682999916374683 0  -0.01326800044625998 0.01791599951684475 0  -0.01388799957931042 0.0170230008661747 0  -0.01241599954664707 0.01773300021886826 0  -0.01245400030165911 0.01876099966466427 0  -0.01157299987971783 0.01791599951684475 0  -0.01201200019568205 0.02169300056993961 0  -0.01250100042670965 0.02073699980974197 0  -0.01152899954468012 0.02078000083565712 0  -0.01104099955409765 0.01992700062692165 0  -0.01048200018703938 0.0207739993929863 0  -0.01201499998569489 0.01978000067174435 0  -0.01299699954688549 0.0217099990695715 0  -0.01447200030088425 0.0209369994699955 0  -0.01499299984425306 0.02191199921071529 0  -0.01398800034075975 0.02179599925875664 0  -0.008949999697506428 0.01979400031268597 0  -0.01098200026899576 0.03070200048387051 0  -0.01149599999189377 0.02983300015330315 0  -0.01046399958431721 0.02977799996733665 0  -0.00532200001180172 0.02951000072062016 0  -0.005836999975144863 0.0304310005158186 0  -0.006345999892801046 0.0295609999448061 0  -0.007960000075399876 0.01987599954009056 0  -0.005396999884396791 0.01938199996948242 0  -0.006403999868780375 0.01919599995017052 0  -0.00559900002554059 0.01853499934077263 0  -0.005673999898135662 0.01770499907433987 0  -0.004670000169426203 0.01799000054597855 0  0.04360400140285492 0.09108799695968628 0  0.04451899975538254 0.09070000052452087 0  0.04408999904990196 0.0917230024933815 0  0.04306500032544136 0.09181299805641174 0  0.01679899916052818 0.05971800163388252 0  0.01785700023174286 0.05968699976801872 0  0.01736200042068958 0.06054700165987015 0  0.03087300062179565 0.04564300179481506 0  0.03137199953198433 0.04462600126862526 0  0.03183300048112869 0.04538299888372421 0  0.03288500010967255 0.04995200037956238 0  0.0338129997253418 0.0493369996547699 0  0.03412000089883804 0.05009600147604942 0  0.03248900175094604 0.0533519983291626 0  0.03155200183391571 0.0533830001950264 0  0.03211700171232224 0.05248599871993065 0  0.03171899914741516 0.05164900049567223 0  0.03272299841046333 0.05159600079059601 0  0.03113999962806702 0.05253000184893608 0  0.03058400005102158 0.05341599881649017 0  0.03069699928164482 0.05171500146389008 0  0.03018400073051453 0.05091699957847595 0  0.02966500073671341 0.05176600068807602 0  0.02913299947977066 0.05095500126481056 0  0.04107800126075745 0.0933929979801178 0  0.04008400067687035 0.09341300278902054 0  0.04063599929213524 0.09256699681282043 0  0.03966199979186058 0.0925540030002594 0  0.00876300036907196 0.02519199997186661 0  0.009541000239551067 0.02569900080561638 0  0.00875800009816885 0.02625299990177155 0  0.009607999585568905 0.02666000090539455 0  0.0286250002682209 0.0518059991300106 0  0.02449500001966953 0.0535999983549118 0  0.02399400062859058 0.05445799976587296 0  0.02344400063157082 0.05362100154161453 0  0.02503399923443794 0.05443599820137024 0  0.03102199919521809 0.05426599830389023 0  0.01981200091540813 0.03667600080370903 0  0.01890400052070618 0.03649799898266792 0  0.01934299990534782 0.0356380008161068 0  0.01411299966275692 0.04159500077366829 0  0.01315199956297874 0.04155100136995316 0  0.01363999955356121 0.04069500043988228 0  0.01267800014466047 0.04065199941396713 0  0.01219100039452314 0.04150800034403801 0  0.01220299955457449 0.03974999859929085 0  0.01316600013524294 0.03979700058698654 0  0.01362599991261959 0.04245100170373917 0  -0.02767099998891354 0.07445000112056732 0  -0.02657599933445454 0.07472699880599976 0  -0.02755399979650974 0.07524500042200089 0  -0.02590500004589558 0.07395599782466888 0  -0.0255149994045496 0.07476700097322464 0  -0.02448800019919872 0.07481200248003006 0  -0.02495899982750416 0.07560999691486359 0  -0.02391899935901165 0.07401999831199646 0  -0.02347999997437 0.07484299689531326 0  -0.02398999966681004 0.07564199715852737 0  -0.02789800055325031 0.07267200201749802 0  -0.0184129998087883 0.08675699681043625 0  -0.01941699907183647 0.08674699813127518 0  -0.01695300079882145 0.09591600298881531 0  -0.01786400005221367 0.0959480032324791 0  -0.01735500060021877 0.09510800242424011 0  -0.01826200075447559 0.09514400362968445 0  -0.01776600070297718 0.09429600089788437 0  -0.01594300009310246 0.09851299971342087 0  -0.01509100012481213 0.09850600361824036 0  -0.01483500003814697 0.099310003221035 0  -0.01297300029546022 0.08929199725389481 0  -0.01119199953973293 0.08266899734735489 0  -0.01019399985671043 0.08268199861049652 0  -0.01064199954271317 0.08351100236177444 0  -0.0101110003888607 0.0843529999256134 0  -0.00965499971061945 0.08352299779653549 0  -0.01527300011366606 0.08091499656438828 0  -0.0157880000770092 0.0800589993596077 0  -0.01480000000447035 0.08007600158452988 0  -0.01381300017237663 0.08009299635887146 0  -0.01431600004434586 0.07923799753189087 0  -0.01807799935340881 0.08426100015640259 0  -0.01763099990785122 0.08342199772596359 0  -0.01862999983131886 0.083406001329422 0  -0.01962999999523163 0.08339300006628036 0  -0.02453099936246872 0.07645300030708313 0  -0.02504000067710876 0.07895799726247787 0  -0.02460799925029278 0.07980199903249741 0  -0.02355399914085865 0.02503499947488308 0  -0.02391999959945679 0.0257399994879961 0  -0.02417200058698654 0.02643699944019318 0  -0.02444300055503845 0.02718699909746647 0  -0.02343999966979027 0.02698799967765808 0  -0.02009399980306625 0.02414700016379356 0  -0.01906700059771538 0.02408899925649166 0  -0.02112499997019768 0.02417300082743168 0  -0.02280700020492077 0.02359800040721893 0  -0.01748700067400932 0.01825400069355965 0  -0.01710399985313416 0.01901699975132942 0  -0.01830000057816505 0.01864000037312508 0  -0.01665199920535088 0.017858000472188 0  -0.01851299963891506 0.02318100072443485 0  -0.01652899943292141 0.02294299
[...]
<PointData  Scalars="pressure"> 
<DataArray  type="Float64"  Name="pressure"  format="ascii">1.0445686777883195e-02  1.0471157218094737e-02  1.0443776976077804e-02  1.0459996499329391e-02  1.0416133007775372e-02  1.0474917995367643e-02  1.0501406024669604e-02  1.0526636149688476e-02  1.0523501815992672e-02  1.0496988354339560e-02  1.0265755993338514e-02  1.0304484586766138e-02  1.0236679948959966e-02  1.0276744736397839e-02  1.9988804021639807e-02  2.0033675514684820e-02  1.9963282101813744e-02  1.8043102648834863e-02  1.8336956860433361e-02  1.7960046147216163e-02  1.8107537786164432e-02  1.6793205764011554e-02  1.7096755110304673e-02  1.7121279973779661e-02  2.0045771007587976e-02  1.9961793499494847e-02  1.9825706368595507e-02  2.0175133212845468e-02  1.0555354996243398e-02  1.0562849444359777e-02  1.0582388685390135e-02  1.0601805800944802e-02  1.0573397961172461e-02  1.0592199817895616e-02  1.0571671758914455e-02  1.0581193451066891e-02  1.0603282878869405e-02  1.0535229623539063e-02  1.0510898059719826e-02  1.0470050248740212e-02  1.0467795438649015e-02  1.0517050224783490e-02  1.0496661668867646e-02  1.0458457578143876e-02  1.0411535342210159e-02  1.0396620999010477e-02  1.0472723898210549e-02  1.0483119346176253e-02  1.0520925345632912e-02  6.0676035494333811e-03  4.9450029768397640e-03  5.8495931955973033e-03  1.4195552154124361e-02  1.4424056826975808e-02  1.4704214575906562e-02  1.5259040936929669e-02  1.4103967576907739e-02  1.4574496453824576e-02  1.6051465380380645e-02  1.4521969386889278e-02  1.9699338613747147e-02  1.9927870522953549e-02  2.0406564216405645e-02  2.0658190685005212e-02  1.8860699440527984e-02  1.8697504101673999e-02  1.8790299720882805e-02  1.8807584108704298e-02  2.1695633826376036e-02  2.1888486445912299e-02  2.1318547156889231e-02  1.8547779000796159e-02  1.8632269153999674e-02  1.9064358234112334e-02  1.8485224254317530e-02  1.8068914092600322e-02  1.8054148454059733e-02  1.9370519124470912e-02  1.9609441755674289e-02  1.9251026878381840e-02  1.8795401299560071e-02  1.8736886032271173e-02  1.8419373320587205e-02  1.4256399046683256e-02  1.3662341432407415e-02  1.4056365575808543e-02  5.0387265800796912e-03  4.0615187207977983e-03  4.1878642690548178e-03  1.0301198060544069e-02  1.0284764100885893e-02  1.0272145914897373e-02  1.0241159481418436e-02  1.0171821128629447e-02  1.0178555636372565e-02  1.0180404038024272e-02  1.0168393458778508e-02  1.0221459291331447e-02  1.0169284650094909e-02  1.0477354638785840e-02  1.0378401622920273e-02  1.0403651973361492e-02  1.0334716917693668e-02  1.0433301188148282e-02  1.0303189330353872e-02  1.0453951816307615e-02  1.0380528523869923e-02  1.0450567792612234e-02  1.0446378832735474e-02  1.0373051150002545e-02  1.1464275549182622e-02  1.1305100951947551e-02  1.1431057886085979e-02  1.2152740106125140e-02  1.2187665434641460e-02  1.1976164039095355e-02  1.0396553137234421e-02  1.0309469188441805e-02  1.0325214891312157e-02  1.0227516159983288e-02  1.0235524487456744e-02  1.0210024262502011e-02  1.2037632456440357e-02  1.1996456747859657e-02  1.2472126794609387e-02  1.2400013826134254e-02  9.1611961178690946e-03  9.3364354157419067e-03  8.6492536451565592e-03  1.4325678154011220e-02  1.4093799003135708e-02  1.4039291661568701e-02  1.3734975768163007e-02  1.3538198791905489e-02  1.3509822746019952e-02  1.2957542726301868e-02  1.3014614242157550e-02  1.3164514601237715e-02  1.3372649365120247e-02  1.3271241729625540e-02  1.3228683590982634e-02  1.3066700576580100e-02  1.3432305633657127e-02  1.3614980260362267e-02  1.3479882415288949e-02  1.3658502979772079e-02  1.3132596456800190e-02  1.2946604417451589e-02  1.2503739495540201e-02  1.2256074600759587e-02  1.3642890973629513e-02  1.3733213067285959e-02  1.3679352427009447e-02  1.3812127641965348e-02  1.3505660888811014e-02  1.2936898910795330e-02  1.2641982982847603e-02  1.2863468437181095e-02  1.2722000885432598e-02  1.2849650979153464e-02  1.4702728434461746e-02  1.4671431610391427e-02  1.4671944791777735e-02  1.4414686942245207e-02  1.4346505128353136e-02  1.4390488039651836e-02  1.4312163890122990e-02  1.4269457481758254e-02  1.4263189668553939e-02  1.4350146125800179e-02  1.4360006397610797e-02  1.8470103207611589e-02  1.8619469393428810e-02  1.8698138064871098e-02  1.8392515538495344e-02  1.8703444763668368e-02  1.8774236879157986e-02  1.9021316595857072e-02  1.8525151775430473e-02  1.8850290043203363e-02  1.9094014804697856e-02  1.7736276408967036e-02  1.9550435674001092e-02  1.9673170034783274e-02  1.8185405967796466e-02  1.8254265334228342e-02  1.8163908564998950e-02  1.8261291744684775e-02  1.8196937494178712e-02  1.8587128880755352e-02  1.8626347092896123e-02  1.8871550587961215e-02  1.7436750636812586e-02  1.8433529402719168e-02  1.8039950747685867e-02  1.8184346728275732e-02  1.7904357639378570e-02  1.7790638561706540e-02  1.9903939700329977e-02  1.9954286850681908e-02  1.9670295889157797e-02  1.9335907744060951e-02  1.9344118530637406e-02  2.0091056881045011e-02  2.0185723177102783e-02  2.0273687804195566e-02  2.0332348367526495e-02  1.9318015641326802e-02  1.9904619285155675e-02  2.0068475693826440e-02  1.0529968158720680e-02  1.0552697460740440e-02  1.0572701484552300e-02  1.0593354778851365e-02  1.0593478838649129e-02  1.0550565447939194e-02  1.0556542539116271e-02  1.0542895904515981e-02  1.0491487420844799e-02  1.0310948966869966e-02  1.0324778175592506e-02  1.0340227351895872e-02  1.0270187913207060e-02  1.0526681227000212e-02  1.0516634696367462e-02  1.0565129196636720e-02  1.0562010780881941e-02  1.1341008875625202e-02  1.1497483681093535e-02  1.1374007758868673e-02  1.0510634152698839e-02  1.0768143866484316e-02  1.0915289855591644e-02  1.0837547887614915e-02  1.0832704218602747e-02  1.0684459763465355e-02  1.1070674420530065e-02  1.1229795767373468e-02  1.1133363076978722e-02  1.3303180972682037e-02  1.3418644677890093e-02  1.3753557136688896e-02  1.0526472008391914e-02  1.1306120110478256e-02  1.1033617289340561e-02  6.7388995295983439e-03  6.5729168553548606e-03  6.1560932653397732e-03  5.0099812363000075e-03  1.4984953462933565e-02  1.4974482104941367e-02  1.4464675728302706e-02  1.4394769845235897e-02  1.4934808995659219e-02  1.4833522430771739e-02  1.1945083133357117e-02  1.1519923037768307e-02  1.1195289428017135e-02  1.0731661770167024e-02  1.3731673811090658e-02  1.4218738884039609e-02  1.3877566778022840e-02  1.3799750396829817e-02  1.3318953753996256e-02  1.3062297070916296e-02  1.3570757699436255e-02  1.7857476784785924e-02  1.8846945965290025e-02  1.7514913447272677e-02  1.4445598685699321e-02  1.5571066011357713e-02  1.5737371823119180e-02  1.7022327435942189e-02  1.9333125824905324e-02  1.9760016826308163e-02  1.9185777447770960e-02  1.8735003664944017e-02  1.9197555288918127e-02  2.1652309588602155e-02  2.0868426778682378e-02  2.1003257390030630e-02  2.1098314692539456e-02  1.9029492133442096e-02  2.0605103695788392e-02  2.0142347102654432e-02  2.0471095821824513e-02  2.0954377263314353e-02  2.0813118543260740e-02  2.1311775845525634e-02  2.1058268979735884e-02  2.0867878092714433e-02  2.1101349050602479e-02  1.5986768143161557e-02  1.5850547315661757e-02  1.5886339161586292e-02  1.6434864547182508e-02  1.6821580462872330e-02  1.6567560969470808e-02  1.8404409199473368e-02  1.8110426865117095e-02  1.9597883981455119e-02  2.0137996078048424e-02  2.0446254286455429e-02  2.0008655208769367e-02  2.0209893968915725e-02  1.9941650459178784e-02  2.0394245778222707e-02  1.8955795410476130e-02  1.8865923153968463e-02  1.9320118013005320e-02  1.8447321639831867e-02  1.9643624986775410e-02  1.9794439888917260e-02  1.9503674442653204e-02  2.0355214848291992e-02  1.9465464023018669e-02  1.9013256535123171e-02  1.9206831773118070e-02  2.5588717649207719e-02  2.4987385916615243e-02  2.4993816994756526e-02  2.4390286953126943e-02  2.4258942497346385e-02  2.3885369760101114e-02  2.4588461133126807e-02  2.4957471354892007e-02  3.2466536592540909e-02  3.1682217366131339e-02  3.2385607662060840e-02  3.2491746453871838e-02  3.1914734280231095e-02  3.1877498774548776e-02  3.2481835823462347e-02  3.2458088387946428e-02  3.1952903326181017e-02  3.1346797095334167e-02  2.3288447055326796e-02  2.1833099190451538e-02  2.2110478280232777e-02  2.3097098964526202e-02  2.4461871892489433e-02  3.1343411140178246e-02  3.1760377059203558e-02  3.0791334234070288e-02  2.6625051000179270e-02  2.6027229536228977e-02  2.5847830725148999e-02  2.4334071991005828e-02  2.4214388074885445e-02  2.4921273559099955e-02  1.0908481895803488e-02  1.0737803011797477e-02  1.1260937985554860e-02  1.1406043569859584e-02  1.1782577189485046e-02  1.1551012465371841e-02  3.1646406308089188e-03  3.1220922878744447e-03  2.4002064483744107e-03  3.9358563496732901e-03  2.4231278654949298e-03  3.5196062419281908e-04  1.7175532349801050e-04  3.3619368291632618e-04  9.5123911828431142e-03  9.9702039806592660e-03  1.0143065428163378e-02  1.1161072775650515e-02  1.1009239316386069e-02  1.1467791106062598e-02  1.1331792103098082e-02  1.3188946277718602e-02  1.2919429423329708e-02  1.3130743382319126e-02  1.1624724743416718e-02  1.1651597309068633e-02  1.1780258038691285e-02  8.5138420563582694e-03  8.5872543486207598e-03  8.7628127165036741e-03  8.1115512291131866e-03  8.4150345258294339e-03  8.0610853873599973e-03  7.6761846819130468e-03  8.0117937463003788e-03  1.0429266825174153e-02  9.4914142082676740e-03  1.0007101284745187e-02  9.8837866405122547e-03  7.1152090611425987e-03  7.0461753470061530e-03  7.5518571860883656e-03  7.1407962419904932e-03  6.6152681649306929e-03  6.5855204987153035e-03  7.0651846173012487e-03  7.6035314440894772e-03  6.9821577265241916e-03  5.2467980104813367e-03  5.6658665413515429e-03  6.0772654546322443e-03  4.8195332979701702e-03  1.5973447518891001e-02  1.5241532909286593e-02  1.5313795378922541e-02  2.0091341780014250e-02  1.9570284180013307e-02  1.9041859578023644e-02  1.1872881228863848e-02  1.2387853836151883e-02  1.1679271127859443e-02  1.2181286686477128e-02  1.2337503860241298e-02  1.1915301809071228e-02  1.2916300749298138e-02  1.2988492959974420e-02  1.3874637124777591e-02  1.3426440687761960e-02  1.3254080373211763e-02  1.4114494538075006e-02  1.3957296958511575e-02  1.3279848999677027e-02  1.4571521589939284e-02  4.3737474883634164e-03  3.3482656381655113e-03  5.2514586183686953e-03  5.5196981152843549e-03  6.4467429171661582e-03  3.2497574079381128e-03  2.4470359186083510e-03  3.0709281266933907e-03  2.1138563392107783e-03  1.0327708452234820e-02  1.0228736483052708e-02  1.0201042730799349e-02  1.0228687413688094e-02  1.0295251476449283e-02  1.0177408717288543e-02  1.0174094996597226e-02  1.0288282777667190e-02  1.0220095168805168e-02  1.0170886883266936e-02  1.0204977612231027e-02  1.0206221253376876e-02  1.1189514482529314e-02  1.1152882464007551e-02  1.1048259318629801e-02  1.1084439484628497e-02  1.1392517580925415e-02  1.1346738214746313e-02  1.1512518962451973e-02  1.1460068324342588e-02  1.1636232574121764e-02  1.1574758907059475e-02  1.2378897621744277e-02  1.1500783645007725e-02  1.1592181562400978e-02  1.1341549285148344e-02  1.1681833978135010e-02  1.1861477875520398e-02  1.0325079292954824e-02  1.0410873269537005e-02  1.7670885220970670e-02  1.7474145100964778e-02  1.6769608758386734e-02  1.7093921836812669e-02  1.6884088571737517e-02  1.0979895911859727e-02  1.1091382878541122e-02  1.1205148854241287e-02  1.0257683996045304e-02  1.0129315922251466e-02  1.0218205415195167e-02  9.8552833743095133e-03  9.3753140887656190e-03  9.4385909293560263e-03  4.2471207959598207e-03  1.0466614126790907e-02  1.0725118633582092e-02  1.0966321407844098e-02  1.1534922923795810e-02  9.7473839836949433e-03  1.0031489831379602e-02  1.0484892613649176e-02  1.0871959472073400e-02  1.2558325681110438e-02  1.2577470588736225e-02  1.2443610899586146e-02  1.2715605027095877e-02  1.2545372417134978e-02  1.2389314663788497e-02  1.2552185741311485e-02  1.0981633052670043e-02  1.1265823883598073e-02  1.1004324020326667e-02  1.1497482014509296e-02  1.1516427678275782e-02  1.1253585213441237e-02  1.2451052877781756e-02  1.2639720721980033e-02  1.2434811907306905e-02  1.2227317623613121e-02  1.1996626671431431e-02  1.2010660347945134e-02  1.2236403868779788e-02  1.1955999204557775e-02  1.1996757137987575e-02  1.1714393752338230e-02  1.1387077952413449e-02  1.1461514760734409e-02  1.1123337405502785e-02  1.1906303116417206e-02  1.1750959891433061e-02  1.1576939859463625e-02  1.1113693349884931e-02  1.1452686450573200e-02  4.2192465823949268e-03  3.4864787744424836e-03  3.9397617296847813e-03  9.0574413860908531e-03  9.4812644410006280e-03  9.7023234944350629e-03  9.7146123795486296e-03  5.2734790240214716e-03  4.9724623303854382e-03  5.5311450206181204e-03  4.6926578025411458e-03  5.0812674713427812e-03  5.7046440285540862e-03  1.1076301327826513e-02  1.1502288699984292e-02  1.1262687860136823e-02  1.0656876455422768e-02  1.0895854585104352e-02  9.9576649868128256e-03  1.0084092628768018e-02  9.6265273537997111e-03  1.0833631310307542e-02  1.0382508328375109e-02  5.3607012797204749e-03  4.6821213380215023e-03  5.3185762197908940e-03  4.7284806304995104e-03  5.4578980235050548e-03  6.0867319863866518e-03  4.2759212438003916e-03  4.7636507882404932e-03  4.1332855747869927e-03  3.7838969358174115e-03  4.0799585300352881e-03  3.8681050735707833e-03  2.7901273488835730e-03  3.1047829304594616e-03  1.4259593474866076e-02  1.2872442494037867e-02  1.3217377384765250e-02  1.3029750860271682e-02  1.2755044081330373e-02  1.3348882995599692e-02  1.3181414397740641e-02  1.3404697043045834e-02  1.3904359677754519e-02  1.3471984771169732e-02  1.3068115230807975e-02  1.3991335246611836e-02  1.3826477085591621e-02  1.3895038258607688e-02  1.3725250829789832e-02  1.3681206691205828e-02  1.3502733395321629e-02  1.3690660889235080e-02  1.3481936905011553e-02  1.3637336438183587e-02  1.4130549689340828e-02  1.4049104217615531e-02  1.3282305020824493e-02  1.3555752365888112e-02  1.1799837824830506e-02  1.3863741037393424e-02  1.3850866403293863e-02  1.3873604549080465e-02  1.4005161521451429e-02  1.4037627194703514e-02  1.3986498614683719e-02  1.3985887104213031e-02  1.3251616145119034e-02  1.3293797759288500e-02  1.3142514580192416e-02  1.3090933533196897e-02  1.3209982405708656e-02  1.3344355398820106e-02  1.2782147766885603e-02  1.2844575658278630e-02  1.2581414043807021e-02  1.3009506264514799e-02  1.2648894396721845e-02  1.2900464910817082e-02  1.2364497500801378e-02  1.2293144953762759e-02  1.2406833873650221e-02  1.2152675562937212e-02  1.2044129156175773e-02  1.2846271585650128e-02  1.2789846175155717e-02  1.3061155688258249e-02  1.3258572685282957e-02  1.3294582803603123e-02  1.2998639945424054e-02  1.2664789543783750e-02  1.2443084562447592e-02  1.2663240460301456e-02  7.7739857357095443e-03  7.4303621005312901e-03  8.0242339464549652e-03  1.0335696292086860e-02  1.0611361001273618e-02  1.0756652533287449e-02  1.4678093524586008e-02  1.4399735989885943e-02  1.4419028966051880e-02  1.4733635907007336e-02  1.4684983001443616e-02  1.4720022287379932e-02  1.4627825766860936e-02  1.4632977554720152e-02  1.4667848070266729e-02  1.4303349733948274e-02  1.4252654928624868e-02  1.4705111366271733e-02  1.4762027455828990e-02  1.4348116924705532e-02  1.4716290436369107e-02  1.4720987699420308e-02  1.4737230486534376e-02  1.4402168161423468e-02  1.4797440343935209e-02  1.4388110330669460e-02  1.4398153575453498e-02  1.4769053232104324e-02  1.4758489645059188e-02  1.4761384062387577e-02  1.4762476533638644e-02  1.3958394164068105e-02  1.3999401975815031e-02  1.3899229986850033e-02  1.3950499116581090e-02  1.4194717648948935e-02  1.4215525709377534e-02  1.4088700145478597e-02  1.4172131329554132e-02  1.4285588246638749e-02  1.4586739810435867e-02  1.4462116819022722e-02  1.4473979772470278e-02  1.4384914904274380e-02  1.4307669119219175e-02  1.4222872758753828e-02  1.4318021880176545e-02  1.4257567947955968e-02  1.4354756938856447e-02  1.4400892601903423e-02  1.4416694538097730e-02  1.4467029465573291e-02  1.4351509012563777e-02  1.4293365908425415e-02  1.9003384380526570e-02  1.8667601110188670e-02  1.8994850498850305e-02  1.0534650081607347e-02  1.0527140589352342e-02  9.9194016820951282e-03  1.9399807045759089e-02  1.9588982040234647e-02  1.8943333550983550e-02  1.8126994384922043e-02  1.8259174937179927e-02  1.8288628705379794e-02  1.8015197741893113e-02  1.8248883717168322e-02  1.8476138100991541e-02  1.9780795079752705e-02  2.0033163333284705e-02  1.8817522498422397e-02  1.8965182465420657e-02  1.9177743989288044e-02  1.9696713049165655e-02  1.8727280915755970e-02  1.8529425027082297e-02  1.8658563635908183e-02  1.9253700017342272e-02  1.9410326000947515e-02  1.8655227914871227e-02  1.8516104668889560e-02  1.8491248852160011e-02  1.8363657631033523e-02  1.8356291051060084e-02  1.8284510986925226e-02  1.8330975244773888e-02  1.8325092243083450e-02  1.8453999210176455e-02  1.8474482189082094e-02  1.8060371422638000e-02  1.8133243460796908e-02  1.6860240525809748e-02  1.8526072850702395e-02  1.6026852198941580e-02  1.6080760671353184e-02  1.6256074367280264e-02  1.6184984083137885e-02  1.7912718000045541e-02  1.7578920290501641e-02  1.7515388053241425e-02  1.6806598334673507e-02  1.7017498928070550e-02  1.6856454469940749e-02  1.7055865189543329e-02  1.6910705122163489e-02  1.7272182800907990e-02  1.6176811147023362e-02  1.5948015721144349e-02  1.6085559277064825e-02  1.6827791603241660e-02  1.7294390736895308e-02  1.7599022905111658e-02  2.0229761128975607e-02  2.0062303824695111e-02  1.9677133635444502e-02  1.9929218879094945e-02  1.9605140573666968e-02  9.9537687336337458e-03  1.0546009308413443e-02  1.9828526655672453e-02  2.0101508330198348e-02  1.9455279148125976e-02  2.0243108580104859e-02  2.0077510511010057e-02  2.0244792812855177e-02  1.9468862420286344e-02  1.9540281267045961e-02  1.9754837805621015e-02  1.9963024354977800e-02  2.0411649058212786e-02  2.0336877842336912e-02  2.0427972820065567e-02  1.9865540468540607e-02  1.9749824303454167e-02  2.0097112093346161e-02  2.0202258342776596e-02  2.0136567268660074e-02  1.0612450054395990e-02  1.0608224116024639e-02  1.0626456853988761e-02  1.0636592815844077e-02  1.0627628152136694e-02  1.0413935824796411e-02  1.0377206614004986e-02  1.0373356625777817e-02  1.0321170985787982e-02  1.0435393602246034e-02  1.0408508496463484e-02  1.0512045569357011e-02  1.0755669660197819e-02  1.0784098098681796e-02  1.0775037943048448e-02  1.0756482912569885e-02  1.0728742883366758e-02  1.0701587038376158e-02  1.0722328094194988e-02  1.0767922682805364e-02  1.0799664752104907e-02  1.0825285442457904e-02  1.0789028496640865e-02  1.0846056158416308e-02  1.0806312974090090e-02  1.0740978881912323e-02  1.0893944394048689e-02  1.0859827721390285e-02  1.0866451141062005e-02  1.0816713939053589e-02  1.0758616178835435e-02  1.0747241010321774e-02  1.0732332653210618e-02  1.0624328617857889e-02  1.0637550645690342e-02  1.0606564600885483e-02  1.0326852882024449e-02  1.0255298374892186e-02  1.0272978855550698e-02  1.0340258505424678e-02  1.1254471085097029e-02  1.1397350680477366e-02  1.1027551212617928e-02  1.1146306965449854e-02  1.1052307372214205e-02  1.0924965075633234e-02  1.0996311504910677e-02  1.0921123227693511e-02  1.0921952523005332e-02  1.0978657528221466e-02  1.1035442236726060e-02  1.0954161064116180e-02  1.1164337612805043e-02  1.1069273871348999e-02  1.0987960084891992e-02  1.1072664167492309e-02  1.0686836712023855e-02  1.0654963665102300e-02  1.0709645645084649e-02  1.0775366217328951e-02  1.0741781874191513e-02  1.0891718225783206e-02  1.0936583855557533e-02  1.0811957359534012e-02  1.1012896224150878e-02  1.0925601062953951e-02  1.1117335614921651e-02  1.0852989768092260e-02  1.0764497584109876e-02  1.1232087059718284e-02  1.1186287568872397e-02  1.1078238230814032e-02  1.1293053316236068e-02  1.0551708491837241e-02  1.0466883040288184e-02  1.0633195759372108e-02  1.0989882583527894e-02  1.0894174723230038e-02  1.1059494628099893e-02  1.3095811827107826e-02  1.303544802