<?xml version="1.0"?>
<VTKFile type="UnstructuredGrid"  version="0.1"  >
<UnstructuredGrid>
<Piece  NumberOfPoints="6340" NumberOfCells="12376">
<Points>
<DataArray  type="Float64"  NumberOfComponents="3"  format="ascii">-0.01923600025475025 0.02059699967503548 0  -0.01992500014603138 0.0212399996817112 0  -0.02015000022947788 0.02026000060141087 0  -0.02069099992513657 0.02098000049591064 0  -0.01946100033819675 0.01967800036072731 0  -0.01908200047910213 0.02147099934518337 0  -0.01958299987018108 0.0221950002014637 0  -0.01912299916148186 0.0230139996856451 0  -0.02004100009799004 0.02291899919509888 0  -0.01862400025129318 0.0221989993005991 0  -0.007911999709904194 0.01801799982786179 0  -0.008604000322520733 0.01886099949479103 0  -0.008932000026106834 0.01791900023818016 0  -0.009631999768316746 0.01879999972879887 0  -0.02663500048220158 0.0734890028834343 0  -0.02762500010430813 0.07386299967765808 0  -0.02775200083851814 0.07306399941444397 0  -0.02671300061047077 0.06693899631500244 0  -0.02741999924182892 0.06761199980974197 0  -0.02755099907517433 0.0667169988155365 0  -0.02834999933838844 0.06710000336170197 0  -0.01389400009065866 0.08570300042629242 0  -0.01480299979448318 0.0855410024523735 0  -0.01416399981826544 0.08490599691867828 0  -0.02084499970078468 0.07976800203323364 0  -0.01983699947595596 0.07997400313615799 0  -0.0204050000756979 0.0806490033864975 0  -0.02028200030326843 0.07908499985933304 0  -0.02167499996721745 0.02428000047802925 0  -0.02083799988031387 0.02443799935281277 0  -0.02119000069797039 0.0251690000295639 0  -0.02150199934840202 0.02590999938547611 0  -0.02204300090670586 0.02501999959349632 0  -0.02034500055015087 0.0253320001065731 0  -0.01996400021016598 0.02454500086605549 0  -0.01907199993729591 0.0246370006352663 0  -0.01947000063955784 0.02542500011622906 0  -0.02131900005042553 0.02352900058031082 0  -0.0222340002655983 0.02341699972748756 0  -0.0216899998486042 0.02230999991297722 0  -0.02120500057935715 0.02166399918496609 0  -0.02092799916863441 0.02273900061845779 0  -0.02042499929666519 0.02199600078165531 0  -0.01594500057399273 0.02192500047385693 0  -0.01645299978554249 0.02104200050234795 0  -0.01545200031250715 0.02104100026190281 0  -0.01687400043010712 0.02202199958264828 0  -0.01779299974441528 0.02201800048351288 0  -0.01731199957430363 0.022902000695467 0  0.03731200098991394 0.07809799909591675 0  0.03721699863672256 0.07717300206422806 0  0.03832999989390373 0.07730799913406372 0  0.03763800114393234 0.08931600302457809 0  0.03828199952840805 0.0895949974656105 0  0.03726400062441826 0.09009499847888947 0  0.02088700048625469 0.09814800322055817 0  0.02114499919116497 0.09734199941158295 0  0.02188899926841259 0.09765499830245972 0  0.01996699906885624 0.09860000014305115 0  0.02023999951779842 0.09762600064277649 0  -0.009123999625444412 0.09407100081443787 0  -0.008206999860703945 0.09430799633264542 0  -0.00888300035148859 0.09492699801921844 0  -0.007953999564051628 0.09516900032758713 0  -0.02033199928700924 0.09337200224399567 0  -0.02061299979686737 0.09269700199365616 0  -0.01958199962973595 0.09294500201940536 0  -0.02129199914634228 0.09340500086545944 0  -0.01755999960005283 0.09917599707841873 0  -0.01790899969637394 0.09993000328540802 0  -0.01835400052368641 0.09918499737977982 0  -0.01276599988341331 0.09256099909543991 0  -0.01190800033509731 0.09271900355815887 0  -0.01257700007408857 0.09334799647331238 0  -0.0136310001835227 0.09241600334644318 0  -0.0129610002040863 0.09178800135850906 0  -0.01382599957287312 0.09164299815893173 0  -0.0164950005710125 0.0941149964928627 0  -0.01712100021541119 0.09471999853849411 0  -0.01739699952304363 0.09395299851894379 0  -0.01516900025308132 0.09289199858903885 0  -0.01605900004506111 0.09274700284004211 0  -0.01537999976426363 0.0921270027756691 0  0.00901699997484684 0.09137800335884094 0  0.009934999980032444 0.09129100292921066 0  0.009309000335633755 0.0920569971203804 0  0.007166999857872725 0.07811500132083893 0  0.007747000083327293 0.07722999900579453 0  0.008084000088274479 0.07802700251340866 0  -0.00761000020429492 0.01713999919593334 0  -0.006779999937862158 0.01736900024116039 0  -0.008492999710142612 0.01701500080525875 0  -0.009413000196218491 0.01688499934971333 0  -0.01312000025063753 0.01680999994277954 0  -0.01337500009685755 0.01789700053632259 0  -0.01398499961942434 0.01700299978256226 0  -0.01254799962043762 0.01771200075745583 0  -0.01257899962365627 0.01874100044369698 0  -0.01171599980443716 0.01788900047540665 0  -0.01211700029671192 0.02167499996721745 0  -0.01260100025683641 0.02071800082921982 0  -0.011655000038445 0.02075899951159954 0  -0.01117900013923645 0.01990099996328354 0  -0.01062299963086843 0.02074499987065792 0  -0.01214000023901463 0.0197599995881319 0  -0.01306900009512901 0.02169100008904934 0  -0.0145030003041029 0.02091800048947334 0  -0.01497399993240833 0.02188000082969666 0  -0.01402499992400408 0.02177700027823448 0  -0.009115000255405903 0.01975000090897083 0  -0.01101399958133698 0.03068700060248375 0  -0.01152100041508675 0.02981700003147125 0  -0.01052500028163195 0.02976199984550476 0  -0.005470999982208014 0.02945799939334393 0  -0.00597700010985136 0.03038799948990345 0  -0.006486000027507544 0.02951999939978123 0  -0.008132999762892723 0.01982199959456921 0  -0.00559999980032444 0.01929499953985214 0  -0.00659599993377924 0.01912100054323673 0  -0.005803999956697226 0.0184480007737875 0  -0.005882999859750271 0.01761600002646446 0  -0.004889999981969595 0.01789000071585178 0  0.03991600126028061 0.08564300090074539 0  0.04075499996542931 0.08504100143909454 0  0.04035200178623199 0.08626600354909897 0  0.03939000144600868 0.0864889994263649 0  0.01565800048410892 0.05850600078701973 0  0.01663799956440926 0.05834000185132027 0  0.01619100011885166 0.05924399942159653 0  0.02851700037717819 0.04293600097298622 0  0.02896600030362606 0.04188099876046181 0  0.02940399944782257 0.04255300015211105 0  0.03047600015997887 0.04683500155806541 0  0.03133299946784973 0.04611000046133995 0  0.03164000064134598 0.04679999873042107 0  0.03018400073051453 0.05018199980258942 0  0.02930900081992149 0.05033800005912781 0  0.02981800027191639 0.04939199984073639 0  0.02942400053143501 0.04863899946212769 0  0.03036499954760075 0.04844599962234497 0  0.02890199981629848 0.04957199841737747 0  0.02840200066566467 0.05050599947571754 0  0.0284659992903471 0.04884599894285202 0  0.02796800062060356 0.04814599826931953 0  0.02749999985098839 0.04904000088572502 0  0.02698599919676781 0.04832800105214119 0  0.03728799894452095 0.08797399699687958 0  0.03633600100874901 0.08806700259447098 0  0.03697200119495392 0.0873119980096817 0  0.03604400157928467 0.08737599849700928 0  0.007801000028848648 0.02454799972474575 0  0.008511999621987343 0.02500900067389011 0  0.007807999849319458 0.02561699971556664 0  0.008582999929785728 0.02597199939191341 0  0.026528000831604 0.04922199994325638 0  0.02271099947392941 0.05152900144457817 0  0.02225900068879128 0.05243099853396416 0  0.02173699997365475 0.05169200152158737 0  0.02322600036859512 0.05226700007915497 0  0.02883199974894524 0.05126899853348732 0  0.01815200038254261 0.03528499975800514 0  0.01730599999427795 0.03518500179052353 0  0.0177020002156496 0.03428500145673752 0  0.01292399968951941 0.04068100079894066 0  0.01203299965709448 0.04070699959993362 0  0.01247300021350384 0.03981100022792816 0  0.01158099994063377 0.03983800113201141 0  0.01114100031554699 0.04073299840092659 0  0.01112799998372793 0.03896300122141838 0  0.0120219998061657 0.03894200176000595 0  0.01248400006443262 0.04157799854874611 0  -0.02829599939286709 0.06796000152826309 0  -0.02719599939882755 0.06845100224018097 0  -0.02824600040912628 0.06874600052833557 0  -0.02643899992108345 0.0678509995341301 0  -0.02611099928617477 0.06870800256729126 0  -0.02506100013852119 0.06896299868822098 0  -0.0256159994751215 0.06962999701499939 0  -0.02440599910914898 0.06832099705934525 0  -0.02402999997138977 0.06920000165700912 0  -0.02462399937212467 0.06986100226640701 0  -0.02835999988019466 0.06621699780225754 0  -0.01997200027108192 0.0815190002322197 0  -0.02096999995410442 0.08132199943065643 0  -0.02023299969732761 0.08981200307607651 0  -0.02115000039339066 0.08968699723482132 0  -0.02049599960446358 0.08904500305652618 0  -0.02140999957919121 0.08892399817705154 0  -0.02076200023293495 0.08827199786901474 0  -0.01963300071656704 0.0922200009226799 0  -0.01876600086688995 0.09235300123691559 0  -0.01862400025129318 0.0930899977684021 0  -0.01508599985390902 0.08473700284957886 0  -0.01211499981582165 0.07917699962854385 0  -0.01111199986189604 0.0793830007314682 0  -0.01169199962168932 0.08004999905824661 0  -0.01131599955260754 0.08090099692344666 0  -0.01071699988096952 0.08024299889802933 0  -0.01607600040733814 0.07671000063419342 0  -0.01654399931430817 0.07578600198030472 0  -0.01553199999034405 0.07600600272417068 0  -0.01451900042593479 0.07622499763965607 0  -0.01497399993240833 0.07530199736356735 0  -0.0192709993571043 0.07929600030183792 0  -0.01872299984097481 0.07859999686479568 0  -0.01973799988627434 0.07838299870491028 0  -0.02075600065290928 0.07816799730062485 0  -0.02524800039827824 0.07052599638700485 0  -0.02595699951052666 0.0728209987282753 0  -0.02557599917054176 0.07372099906206131 0  -0.0225210003554821 0.02400300092995167 0  -0.02280000038444996 0.02456999942660332 0  -0.02298399992287159 0.02511800080537796 0  -0.02318199910223484 0.02570700086653233 0  -0.02232000045478344 0.02579200081527233 0  -0.01955600082874298 0.02377299964427948 0  -0.01865600049495697 0.02385500073432922 0  -0.02046000026166439 0.02366200089454651 0  -0.0219539999961853 0.0228470005095005 0  -0.01739400066435337 0.01820000074803829 0  -0.01701899990439415 0.01896500028669834 0  -0.01814999990165234 0.01857000030577183 0  -0.01661800034344196 0.01782000064849854 0  -0.01818699948489666 0.02300300076603889 0  -0.016395
[...]
<PointData  Scalars="pressure"> 
<DataArray  type="Float64"  Name="pressure"  format="ascii">3.5185103028673163e-02  3.5231216704199909e-02  3.5195826749199903e-02  3.5235337419107671e-02  3.5147406148827137e-02  3.5204472824143601e-02  3.5240711438163416e-02  3.5249399179964100e-02  3.5272348648674692e-02  3.5205079002559481e-02  3.4634469961359590e-02  3.4692465465552519e-02  3.4664573690351023e-02  3.4716726913353209e-02  2.4335252713892558e-02  2.4960009281439412e-02  2.5413766654961478e-02  2.4847839574325653e-02  2.5245171467422632e-02  2.4972431680433026e-02  2.5559595287496864e-02  1.9045989734262220e-02  1.9649989733292191e-02  1.9508175071603927e-02  2.3087522636149764e-02  2.2909036959192421e-02  2.2868271327008131e-02  2.3134264538166173e-02  3.5352939045008462e-02  3.5325451381206879e-02  3.5337545885143373e-02  3.5335002033321156e-02  3.5366188150566233e-02  3.5326155222086562e-02  3.5309649671945664e-02  3.5288628719048191e-02  3.5312322272501903e-02  3.5328411033322807e-02  3.5334683701553071e-02  3.5282773286062941e-02  3.5254873048359954e-02  3.5296640083221476e-02  3.5260572634886814e-02  3.5079074165437769e-02  3.5079640542540397e-02  3.5027706568222267e-02  3.5129016341604598e-02  3.5171604839122156e-02  3.5173833234414476e-02  3.2952285519549623e-02  3.0645689845874218e-02  3.1894161515954859e-02  5.9480638405888589e-02  6.1122657689184914e-02  6.1797253102966215e-02  3.2893317879125347e-02  3.3515277786725556e-02  3.6093134049819842e-02  3.0123861182313697e-02  3.0860861386257706e-02  1.3471187288298173e-02  1.3091442976460109e-02  1.3285282818644412e-02  1.2954297771094372e-02  1.8449329736191226e-02  1.8884520079891540e-02  1.8338981987647454e-02  1.9687676844858802e-02  1.5757570363154463e-02  1.6166574784461096e-02  1.6654125548585690e-02  1.5637493899103030e-02  1.5129884601649241e-02  1.5285733719017723e-02  1.6133762325720058e-02  1.5996267955898584e-02  1.6513388633670509e-02  1.6809607054429757e-02  1.6823681202385615e-02  1.7217326979574267e-02  1.6709593792611742e-02  1.7158179397515974e-02  1.7105115888886573e-02  6.9032924745233218e-03  7.1885938474855401e-03  7.6466435727904347e-03  1.7836914639452126e-03  2.7943848868225013e-03  2.7604519841945979e-03  3.4610486167507434e-02  3.4588494193869612e-02  3.4636663576565488e-02  3.4674006129977598e-02  3.4815085174820612e-02  3.4846268286973472e-02  3.4868292571728993e-02  3.4803681915671902e-02  3.4827097637534707e-02  3.4766885024171933e-02  3.4869266768902590e-02  3.4866683183088658e-02  3.4826448908358378e-02  3.4789237249456137e-02  3.4791932113501706e-02  3.4824141998968702e-02  3.4913430871276699e-02  3.4972005328128372e-02  3.5023883431109064e-02  3.4966547517326974e-02  3.4728532118018587e-02  3.5396193805934117e-02  3.5338077888973175e-02  3.5290900814025764e-02  3.4983124749655557e-02  3.5051573709005572e-02  3.5042006926205696e-02  3.4713518007933486e-02  3.4677027934075760e-02  3.4671994003707157e-02  3.4625831170753962e-02  3.4582195132853738e-02  3.4597058066494046e-02  5.0614735746651700e-02  4.9881129739560361e-02  5.2672674000590315e-02  5.2477660525903226e-02  2.5308059183486678e-02  2.6206190811550657e-02  2.5227551884910333e-02  3.8528041386877099e-02  3.8265455713152818e-02  3.8432139866218545e-02  3.9556279737809841e-02  3.9298268744730344e-02  3.9473299416214781e-02  3.9687598381281122e-02  3.9440503174107064e-02  3.9571875778802092e-02  3.9452638160081210e-02  3.9619556738411263e-02  3.9324075198740552e-02  3.9112656428732476e-02  3.9201523750327198e-02  3.9058695348389030e-02  3.8868392100619098e-02  3.8705399010269627e-02  5.4977452974082922e-02  5.4202609762950736e-02  5.2698036703125846e-02  5.1853582307486094e-02  3.4739622997918496e-02  3.4726015534390739e-02  3.4814201246957804e-02  3.4804654763213039e-02  3.8440666131737453e-02  3.5417540114159762e-02  3.4646705867182645e-02  3.4559943691790863e-02  3.5499679358222264e-02  3.9230776223604324e-02  3.5491988181230165e-02  3.5362302404435608e-02  3.5355439389425411e-02  3.4212011569063339e-02  3.3957567149874329e-02  3.4300078536033188e-02  3.4058669702041230e-02  3.3692488338383203e-02  3.4152338605062338e-02  3.4361902400119701e-02  3.3819797333230858e-02  2.5693779737883130e-02  2.4880201523391196e-02  2.5220497295896767e-02  2.4906138569599751e-02  2.4786636526837956e-02  2.4729099815963551e-02  2.4675832198656052e-02  2.4781994355431332e-02  2.4655816232534024e-02  2.4619533023129712e-02  2.5305568334758811e-02  2.2619716392326378e-02  2.2797823672026284e-02  1.9811662830221011e-02  2.0073370197913235e-02  2.0181301015124095e-02  2.0418160460640475e-02  2.0544162339650854e-02  1.8634657009536412e-02  1.8341958122002164e-02  1.7993843860962699e-02  2.0112487598390981e-02  1.8991686096164882e-02  1.7866243611304997e-02  1.8452800443574627e-02  1.7953934584454129e-02  1.7328266737179750e-02  2.2231469572435721e-02  2.2524695209403464e-02  2.2008340847963007e-02  2.1370244287072904e-02  2.1719336161702775e-02  2.2925794057275004e-02  2.2914302901114639e-02  2.3149125859896730e-02  2.3327091113060458e-02  2.4575241206366297e-02  2.4318443331283107e-02  2.4204741718092608e-02  3.5343341463045790e-02  3.5340182883072793e-02  3.5328639974515449e-02  3.5315204852900919e-02  3.5351738969986779e-02  3.5282241170541295e-02  3.5256564588253006e-02  3.5301687860918966e-02  3.5307128098372095e-02  3.5053062272346863e-02  3.5047033344831571e-02  3.5077735976421581e-02  3.5014688224525164e-02  3.5217022703972319e-02  3.5131648102294397e-02  3.5132487059954753e-02  3.5180781776919016e-02  3.5441506398530540e-02  3.5512357501418963e-02  3.5537527365778865e-02  3.4831920152163479e-02  3.4867156780110688e-02  3.4892317246462135e-02  3.4918387133840489e-02  3.4848300475526582e-02  3.4824703827645145e-02  3.4919310727684713e-02  3.4947019452146122e-02  3.4978978516979065e-02  5.6826785110891731e-02  5.8551568157759401e-02  5.9379198204472079e-02  4.6592302369177961e-02  4.9024225726101052e-02  4.8304370930632806e-02  3.7297938003922670e-02  3.6883629928364435e-02  3.5844033557210483e-02  3.0465379659699168e-02  6.2374893094032956e-02  6.2321104342003476e-02  6.0079236248708506e-02  5.9801183057012749e-02  6.2289150266825535e-02  6.2084814998569826e-02  5.0878150406871978e-02  4.9635397286143849e-02  4.8707889894620958e-02  4.7523691909318544e-02  5.7382382100130254e-02  5.9278587029182192e-02  5.7722320890839035e-02  5.7356581449303050e-02  5.5594159394397977e-02  5.4590276092780325e-02  5.6558590524341056e-02  2.4576337437112288e-02  2.2107782623641485e-02  2.2856111719062648e-02  2.8226629305455157e-02  2.8737529741949309e-02  2.6550596294340017e-02  2.7180398671243111e-02  1.4338070793370357e-02  1.4509650717269805e-02  1.4803531059637907e-02  1.4636379954478029e-02  1.3263688702554163e-02  1.1991215665532108e-02  1.1998640884943124e-02  1.1830324597296923e-02  1.3107835748360781e-02  1.9294858509232030e-02  1.7348462544254838e-02  1.7788944633407924e-02  1.6878137614215784e-02  1.6938939757206013e-02  1.6023812663687090e-02  1.5333083415934465e-02  1.5677220177752568e-02  1.5698387725452519e-02  1.5328810219496218e-02  1.4128403656438721e-02  1.4450899448658135e-02  1.3671261024367012e-02  1.6477057531774211e-02  1.6661601269728751e-02  1.7116193349893012e-02  1.7556144250703558e-02  1.5465935650511735e-02  1.4964158309585932e-02  1.4668374221597419e-02  1.6069367407259297e-02  1.6438477130594847e-02  1.6059093149936809e-02  1.6026915548708782e-02  1.5662216038938533e-02  1.5768150167273884e-02  1.6241259876030534e-02  1.5876797290842314e-02  1.6624549668628696e-02  1.5967236701738316e-02  1.5536898870936872e-02  1.6394131823632148e-02  1.6450614536765690e-02  1.7205777942099119e-02  1.7198417070600436e-02  1.6326980171543395e-02  1.1036671114878660e-02  1.1318266228861479e-02  1.1356574171487138e-02  1.1567963328182322e-02  1.1742328581743504e-02  1.1838712029790928e-02  1.1522357873154268e-02  1.1391264872149066e-02  5.8405238896097680e-03  6.3175451402802119e-03  5.5548572605349997e-03  6.3604638158984428e-03  6.5108108180035873e-03  7.7454342451039465e-03  7.0189238763889300e-03  7.7714682229861748e-03  7.0762212255051707e-03  7.7269682488656719e-03  1.3707203584648865e-02  1.5184863262313816e-02  1.5340351534756345e-02  1.3584350899474816e-02  1.2205497042844592e-02  5.5940372165110552e-03  5.4309538101731322e-03  6.3418903613485095e-03  1.0502829503258142e-02  1.0896893155890028e-02  1.0998136796608736e-02  1.1599679350993902e-02  1.1635997408668247e-02  1.1395278271271757e-02  1.0342637699367691e-02  1.1178732825403416e-02  9.7641894864530926e-03  8.9656648701899322e-03  8.5249103382532485e-03  9.3862969578378252e-03  4.0841757696441494e-03  4.1938445606009983e-03  5.4008903396048288e-03  2.9687871172467545e-03  5.3288863914775983e-03  1.3328221492004938e-02  1.3659350581888142e-02  1.2175930375422139e-02  2.7124717635741796e-02  2.7188211908194180e-02  2.8108890960618759e-02  3.3981568172853513e-02  3.3021747365036547e-02  3.3960436327600409e-02  3.3015048140553033e-02  3.3615778273560853e-02  3.2815743319838706e-02  3.2799607690963725e-02  3.5464577048743853e-02  3.5571496089946017e-02  3.5527478992877816e-02  1.8684913086770567e-02  1.8636323659732439e-02  1.8877537756134530e-02  1.8600650336093670e-02  1.9085742657591609e-02  1.8728860846962118e-02  1.8227072496998543e-02  1.8874365089664238e-02  1.1902933078313971e-02  1.3753885776284204e-02  1.2760932637211814e-02  1.2017318201772625e-02  3.2625633392909005e-02  3.1840961247348754e-02  3.2811218707344027e-02  3.3320274286250340e-02  3.2387730162044749e-02  3.3007541626659143e-02  3.3933726140277676e-02  3.4875242324651237e-02  3.4475999350447734e-02  3.4976344068319364e-02  3.4774810386713317e-02  3.5855701629318781e-02  3.3850209449836029e-02  8.9237792235524679e-03  8.2110880212643705e-03  8.9079703374738486e-03  1.1156963468666799e-02  1.0863815401829506e-02  1.0655431954057229e-02  7.0876221602901163e-03  6.1376549159165156e-03  6.4781803403900010e-03  5.5505806947379333e-03  7.5130418470346697e-03  7.7676459495391245e-03  5.3950071957705112e-03  6.0204620059051764e-03  6.4328570045098926e-03  7.9796752099025869e-03  9.6926286577488502e-03  1.0121048446924123e-02  9.2690371798240939e-03  8.8083666063331206e-03  8.2135141006984755e-03  2.7719554723672560e-03  3.9122092423763619e-03  1.7809370510084438e-03  1.8297916596124036e-03  1.0342172035868943e-03  3.9334344182771763e-03  6.7282021931488606e-03  5.3053994160220871e-03  6.6645182975828068e-03  3.4978659668091452e-02  3.4977059646939243e-02  3.4924231474317613e-02  3.4948223017833686e-02  3.4868998952301639e-02  3.4777763195211947e-02  3.4736196332722902e-02  3.4753905849362263e-02  3.4743401810493971e-02  3.4725960938159758e-02  3.4707919478108612e-02  3.4696986983258418e-02  3.5385526603889522e-02  3.5285973116481330e-02  3.5329083203139086e-02  3.5418493381569861e-02  3.5188331695349281e-02  3.5094263768357004e-02  3.5133907794581767e-02  3.5045801840146176e-02  3.5077100835028407e-02  3.4994841411097516e-02  3.4983101321144676e-02  3.4841029478431235e-02  3.4855980296907535e-02  3.4836594404129922e-02  3.4873258829171472e-02  3.4872159256203197e-02  3.4677035379239135e-02  3.4705042084678873e-02  2.5168727205580596e-02  2.5808422966287194e-02  2.5304125020324676e-02  2.5217334592342926e-02  2.5291379733767161e-02  3.2017782756584290e-02  3.2966728901302908e-02  3.2808627760709183e-02  3.2154333503768076e-02  3.1576286843507988e-02  3.2257449883499198e-02  3.9244228536963029e-02  3.9033010357279109e-02  3.8773677284405526e-02  2.9396570709516175e-02  3.9517372370553944e-02  3.9634540598735224e-02  3.9991826897576382e-02  4.8168031124436253e-02  4.2480823531015788e-02  4.2461779011501131e-02  4.4739349902735190e-02  4.5270463045144455e-02  4.0425180550995476e-02  4.0108121232156006e-02  4.0222916223098350e-02  4.0319618014341516e-02  3.9835667100941829e-02  4.0143401909321932e-02  4.0002816292184218e-02  3.8835530590340450e-02  3.9343189523914475e-02  3.9358135351100429e-02  3.9683763235216205e-02  3.9301437784984863e-02  3.9771294858444377e-02  3.9048889252047921e-02  3.9364321895379639e-02  3.9491150746020533e-02  3.9958025223647997e-02  3.9950372095532968e-02  3.9642545868582020e-02  3.9616032850770699e-02  3.8117764342899096e-02  3.8727422747532436e-02  3.8159792099155612e-02  3.7519889636418849e-02  3.8202943448040122e-02  3.7549262664382202e-02  4.0236708854743425e-02  3.9909641676096758e-02  3.9920127150560009e-02  3.9934237697412528e-02  4.0136838169583938e-02  2.1997729391784709e-02  2.0991750313639292e-02  2.1002989071437585e-02  2.9020627008946698e-02  2.9015429263910555e-02  3.0030910770728482e-02  2.8077460865623623e-02  1.5272690346973622e-02  1.4042490785903389e-02  1.4985612043531479e-02  1.4411116223182120e-02  1.5663197707334181e-02  1.6424719802549885e-02  2.2913971316139405e-02  2.3759286963399621e-02  2.3273469707074501e-02  2.2129673669747739e-02  2.2584672561173753e-02  2.1101129929290974e-02  2.1433725719803509e-02  2.0844980259375159e-02  2.2476075189275198e-02  2.1739021204401118e-02  1.9499141762012083e-02  1.8402294055335000e-02  1.8697258974475751e-02  1.9300756383590190e-02  2.0364296276061761e-02  2.0550534489948959e-02  1.5590373198276275e-02  1.6817566446475064e-02  1.6376845457568970e-02  2.4308717131096641e-02  2.4611326526839269e-02  2.3435836991647703e-02  1.9948142526100263e-02  2.1025772843946786e-02  3.8754663932466037e-02  3.9852743825625453e-02  3.9913866541223683e-02  4.0046450337130335e-02  3.9819434157963116e-02  3.9545733660254365e-02  3.9637506526840519e-02  3.9789906773341453e-02  3.9395088865259116e-02  3.9503754474829109e-02  3.9735975937299994e-02  3.8876955202865930e-02  3.9116826030303725e-02  3.8899185993172394e-02  3.9145652102436770e-02  3.8276238712566829e-02  3.7943860205403919e-02  3.5713513236715899e-02  3.5109593497858527e-02  3.5016841334686188e-02  3.8646021824937912e-02  3.8816327102835085e-02  3.8995747107954372e-02  3.9320416051825693e-02  5.0460129653765270e-02  3.4802322255717173e-02  3.4707576154449235e-02  3.4699797710209736e-02  3.4727988603595633e-02  3.4804967995092598e-02  3.4715557360480931e-02  3.4795387593256108e-02  3.4921917851946774e-02  3.4920197416019365e-02  3.4938268048527371e-02  3.4930396711545540e-02  3.4912219073017350e-02  3.4893952531520597e-02  3.4928147849102045e-02  3.4925947017249478e-02  3.4912049810180076e-02  3.4939461491603957e-02  3.4908114642843505e-02  3.4913659464554728e-02  3.4894792792733248e-02  3.4892938924364514e-02  3.4718460833356980e-02  3.4784671520825788e-02  3.3875766802330266e-02  3.7044767358325417e-02  3.6299429311015458e-02  3.6935011766946108e-02  3.6813555610507490e-02  3.7489419766405768e-02  3.6206865745962519e-02  3.8930700710483067e-02  3.8524340701072940e-02  3.8418585829836448e-02  3.1043239029025820e-02  3.0053031394178337e-02  3.1005581341118124e-02  3.5941907655076252e-02  3.5940656497700452e-02  3.6778786145018214e-02  3.5337859364522897e-02  3.5165115605029391e-02  3.5280043109596794e-02  3.5488788613933425e-02  3.5393161484031571e-02  3.5562211413115760e-02  3.5226796421215172e-02  3.5245167421045699e-02  3.5356762700434405e-02  3.7066827974266296e-02  3.7238553839057789e-02  3.7214760830350607e-02  3.7034084588707307e-02  3.6899093088276672e-02  3.6857093771995683e-02  3.6672843854233333e-02  3.6659006242284423e-02  3.6340768297919740e-02  3.6309374893016208e-02  3.6136395607775033e-02  3.5999602345928652e-02  3.6126260543649522e-02  3.6284355042527416e-02  3.6302208425192543e-02  3.6104713442801334e-02  3.4240815349329795e-02  3.4179479891143547e-02  3.4053698829309836e-02  3.3971393046758586e-02  3.3521606261238970e-02  3.3990013117145966e-02  3.3364758095524416e-02  3.3078918746478191e-02  3.3692949924147016e-02  3.5134974140664431e-02  3.4533524054934379e-02  3.4475683671626872e-02  3.4222482583202277e-02  3.4100337500884099e-02  3.2883703752903476e-02  3.3481096202910329e-02  3.3280222275966179e-02  3.3846958143621673e-02  3.3990184199631124e-02  3.4112536530582785e-02  3.4406160070472792e-02  3.3659023913741495e-02  3.3536642909426193e-02  2.4220941528803594e-02  2.4165020335497563e-02  2.3990719467144858e-02  1.2855480179845898e-02  1.4064663390591828e-02  1.2873699051421494e-02  2.4501330340780593e-02  2.4439784854057858e-02  2.4602122069563741e-02  2.4951661851117655e-02  2.1246363673057551e-02  2.1345868692014221e-02  2.0969304658756578e-02  2.1139674390380968e-02  2.1501579678807399e-02  2.1886469639001614e-02  2.2391664391238297e-02  2.1989722291832964e-02  2.2709179797190261e-02  2.3214622016534271e-02  2.2672430156432749e-02  2.1833510184120920e-02  2.1617403780511045e-02  2.1703033777042628e-02  2.2358998310263889e-02  2.2540137724567755e-02  2.0198606216451344e-02  1.9647481657009573e-02  2.0476922821429204e-02  1.9342230315403039e-02  1.9768137892780729e-02  1.9714040206787624e-02  2.0139990357217537e-02  2.0493110089795770e-02  2.1146630791429095e-02  2.1463539890199966e-02  2.0277442513614935e-02  2.0653433149976516e-02  1.9182237616003649e-02  1.9008866184424433e-02  1.4590741949325636e-02  1.5483243248073798e-02  1.4920977209129271e-02  1.3905553232627585e-02  1.8529114211374174e-02  1.7497519318024686e-02  1.8080455276438027e-02  1.3041613350740333e-02  1.4367588002785300e-02  1.3447319754734628e-02  1.5198083290083916e-02  1.4003977024489737e-02  1.7077201398166250e-02  1.6413129834359566e-02  1.5985947140190158e-02  1.6835561934859085e-02  1.8834402171737881e-02  1.5615985514255359e-02  1.6655625050093610e-02  2.2793501931080505e-02  2.2507580078426806e-02  2.2291162146088020e-02  2.2760611397174821e-02  2.2544519657008086e-02  1.4114108522708370e-02  1.5159104392419707e-02  2.2972048050806868e-02  2.3131624737435498e-02  2.2767120557599836e-02  2.3847750878543017e-02  2.3819644180153518e-02  2.3660053104304975e-02  2.4408152820238269e-02  2.4283669054570314e-02  2.4270427762730147e-02  2.2671172224031526e-02  2.3342319362807541e-02  2.3129954141263523e-02  2.3342860999749138e-02  2.4744307120689361e-02  2.5332497777437395e-02  2.4294051210313972e-02  2.4349243544959438e-02  2.4021594955517346e-02  3.5327865490505227e-02  3.5283811127800699e-02  3.5304005353881555e-02  3.5287897959953476e-02  3.5247512128886785e-02  3.5139074434498430e-02  3.5108462247152972e-02  3.5077455216727005e-02  3.5030730934180285e-02  3.5125353965539063e-02  3.5119893138039648e-02  3.5078131514465025e-02  3.4989423251989629e-02  3.5051395472296437e-02  3.4942877940214619e-02  3.5084084304966803e-02  3.5118366042051367e-02  3.5159031823683212e-02  3.5187238831715512e-02  3.5372960157067632e-02  3.5393355041633823e-02  3.5400645584169908e-02  3.5362529552063593e-02  3.5383830327160748e-02  3.5334008805798872e-02  3.5345671247133795e-02  3.5433700903146570e-02  3.5348112706222908e-02  3.5290735523526212e-02  3.5281795615701952e-02  3.4814847820522986e-02  3.4879554908997454e-02  3.4941960881249942e-02  3.5324174631327462e-02  3.5318407040336355e-02  3.5191457294315026e-02  3.2953807473810735e-02  3.2648089051140070e-02  3.2555599547464870e-02  3.2835371520703517e-02  3.5547879427029291e-02  3.5603101197252421e-02  3.5490812439763833e-02  3.5538247854279628e-02  3.5511384009531882e-02  3.5447412921872298e-02  3.5438569618093246e-02  3.5369049817013595e-02  3.5303518265696054e-02  3.5318427385531329e-02  3.5335170149915412e-02  3.5215974832800583e-02  3.5563224248715393e-02  3.5509390378385311e-02  3.5444836525429679e-02  3.5477962559253680e-02  3.5263553349213710e-02  3.5204925212561709e-02  3.5228300720495181e-02  3.5264314189957194e-02  3.5186878024831919e-02  3.4978577843454206e-02  3.5047306920706504e-02  3.5018500832901950e-02  3.5232728775294597e-02  3.5274532043924375e-02  3.5185763793725733e-02  3.5095713460349051e-02  3.4950440280502634e-02  3.5140749541978489e-02  3.5048169485802069e-02  3.5095510162861512e-02  3.5010416257718412e-02  3.4804996647957803e-02  3.4768036037127595e-02  3.4847143182605587e-02  3.4871379923718270e-02  3.4832846158574793e-02  3.4854708125708782e-02  5.6486542565190895e-02  5.814561105