<?xml version="1.0"?>
<VTKFile type="UnstructuredGrid"  version="0.1"  >
<UnstructuredGrid>
<Piece  NumberOfPoints="6340" NumberOfCells="12376">
<Points>
<DataArray  type="Float64"  NumberOfComponents="3"  format="ascii">-0.01943599991500378 0.02077200077474117 0  -0.02007400058209896 0.02141799964010715 0  -0.02030999958515167 0.02043999917805195 0  -0.02081600017845631 0.02116400003433228 0  -0.01967299915850163 0.01985500007867813 0  -0.01926800049841404 0.02164500020444393 0  -0.01972699910402298 0.02236999943852425 0  -0.01926900073885918 0.02318600006401539 0  -0.02015299908816814 0.02309799939393997 0  -0.01881599985063076 0.02236899919807911 0  -0.009061999619007111 0.01767599955201149 0  -0.00965999998152256 0.01858199946582317 0  -0.009995000436902046 0.0176439993083477 0  -0.01059900037944317 0.01859099976718426 0  -0.02460400015115738 0.0736519992351532 0  -0.02550400048494339 0.07401499897241592 0  -0.02566500008106232 0.07324399799108505 0  -0.02511500008404255 0.06723800301551819 0  -0.02571200020611286 0.06791000068187714 0  -0.02590600028634071 0.06702399998903275 0  -0.0266100000590086 0.06740999966859818 0  -0.01230399962514639 0.08555500209331512 0  -0.0131630003452301 0.08539599925279617 0  -0.01259199995547533 0.08477000147104263 0  -0.01895700022578239 0.0797249972820282 0  -0.01801400072872639 0.079926997423172 0  -0.01851999945938587 0.08058899641036987 0  -0.01845799945294857 0.07905799895524979 0  -0.02172599919140339 0.02447899989783764 0  -0.02089500054717064 0.02462299913167953 0  -0.0212399996817112 0.02536400035023689 0  -0.02154600061476231 0.02611400000751019 0  -0.02208700031042099 0.02522899955511093 0  -0.02040099911391735 0.02551300078630447 0  -0.02004699967801571 0.02472300082445145 0  -0.01918799988925457 0.02480800077319145 0  -0.01955500058829784 0.02559899911284447 0  -0.0213760007172823 0.02371899969875813 0  -0.0222839992493391 0.02362100034952164 0  -0.02174999937415123 0.02250000089406967 0  -0.02129600010812283 0.02185099944472313 0  -0.02100900001823902 0.02292300015687943 0  -0.02054000087082386 0.02217799983918667 0  -0.01630000025033951 0.02205800078809261 0  -0.01679999940097332 0.02118300087749958 0  -0.01586800068616867 0.02115299925208092 0  -0.01716299913823605 0.02218200080096722 0  -0.01803299970924854 0.02218399941921234 0  -0.0175550002604723 0.02306400053203106 0  0.04178399965167046 0.0780780017375946 0  0.04141499847173691 0.07726199924945831 0  0.0427049994468689 0.07738500088453293 0  0.04506599903106689 0.08789200335741043 0  0.0458579994738102 0.08814200013875961 0  0.04474800080060959 0.08865299820899963 0  0.02687700092792511 0.09686899930238724 0  0.02705400064587593 0.09608700126409531 0  0.02796999923884869 0.0963670015335083 0  0.02587199956178665 0.09733100235462189 0  0.02604199945926666 0.09638600051403046 0  -0.006849000230431557 0.09377600252628326 0  -0.005954000167548656 0.09397599846124649 0  -0.006539000198245049 0.09459000080823898 0  -0.005636999849230051 0.09479299932718277 0  -0.01787200011312962 0.09308599680662155 0  -0.01819300092756748 0.0924220010638237 0  -0.01719100028276443 0.09266600012779236 0  -0.01878399960696697 0.09311799705028534 0  -0.01452200021594763 0.09883099794387817 0  -0.01477300003170967 0.09957200288772583 0  -0.01530400011688471 0.09884200245141983 0  -0.0106039997190237 0.09232000261545181 0  -0.009739999659359455 0.09247499704360962 0  -0.01032300014048815 0.09309499710798264 0  -0.01147000025957823 0.09217000007629395 0  -0.01088699977844954 0.09155099838972092 0  -0.01175200007855892 0.09140200167894363 0  -0.01408100035041571 0.09383600205183029 0  -0.01462499983608723 0.09443199634552002 0  -0.01498000044375658 0.09367000311613083 0  -0.01292399968951941 0.09263200312852859 0  -0.01380600035190582 0.0924839973449707 0  -0.01321200001984835 0.09187299758195877 0  0.01200699992477894 0.09069500118494034 0  0.0130639998242259 0.09058400243520737 0  0.01245000027120113 0.09133999794721603 0  0.007833000272512436 0.07798600196838379 0  0.008280999958515167 0.07719399780035019 0  0.008888999931514263 0.07787500321865082 0  -0.008820000104606152 0.01675999909639359 0  -0.008062999695539474 0.01691900007426739 0  -0.009628999978303909 0.01669299975037575 0  -0.01047299988567829 0.0166229996830225 0  -0.01386000029742718 0.01676999963819981 0  -0.01405700016766787 0.01788399927318096 0  -0.0146500002592802 0.01700600050389767 0  -0.01330399978905916 0.01765399985015392 0  -0.01329400017857552 0.01870400086045265 0  -0.01253699976950884 0.01778700016438961 0  -0.01276400033384562 0.02165699936449528 0  -0.01324400026351213 0.02070900052785873 0  -0.01237399969249964 0.02070299908518791 0  -0.01197099965065718 0.01980200037360191 0  -0.01143200043588877 0.0206300001591444 0  -0.01285499986261129 0.01971499994397163 0  -0.01363999955356121 0.02171799913048744 0  -0.01498799957334995 0.0209989994764328 0  -0.01539599988609552 0.02198499999940395 0  -0.01451800018548965 0.02184800058603287 0  -0.01009299978613853 0.01952500082552433 0  -0.01143100019544363 0.0307449996471405 0  -0.01192899979650974 0.02988599985837936 0  -0.01101300027221441 0.02978499978780746 0  -0.006403000093996525 0.02917799912393093 0  -0.006829000078141689 0.03016100078821182 0  -0.007325999904423952 0.02931099943816662 0  -0.009194999933242798 0.01953100040555 0  -0.006924000103026628 0.01878499984741211 0  -0.007826999761164188 0.01869699917733669 0  -0.007141000125557184 0.01793500036001205 0  -0.00724499998614192 0.01709000021219254 0  -0.006339999847114086 0.01727999933063984 0  0.04701000079512596 0.08440099656581879 0  0.04773300141096115 0.08391200006008148 0  0.04771199822425842 0.08491799980401993 0  0.04667799919843674 0.08512300252914429 0  0.01478699967265129 0.05785499885678291 0  0.01576199941337109 0.05764799937605858 0  0.01535800006240606 0.05857999995350838 0  0.02695100009441376 0.04158600047230721 0  0.02734199911355972 0.04050499945878983 0  0.02783899940550327 0.04115400090813637 0  0.02930800057947636 0.0454070009291172 0  0.0301510002464056 0.04464000090956688 0  0.03054600022733212 0.04532999917864799 0  0.02933100052177906 0.04882699996232986 0  0.02840300090610981 0.04900899901986122 0  0.0288539994508028 0.04802900180220604 0  0.02835999988019466 0.04727799817919731 0  0.02934600040316582 0.04704900085926056 0  0.02789399959146976 0.04824500158429146 0  0.02745199948549271 0.04921299964189529 0  0.02735799923539162 0.04752400144934654 0  0.02677099965512753 0.04684000089764595 0  0.02635399997234344 0.0477599985897541 0  0.02575699985027313 0.04707099869847298 0  0.04445299878716469 0.08661200106143951 0  0.04335800185799599 0.08672799915075302 0  0.04398399963974953 0.08598300069570541 0  0.04291199892759323 0.08607099950313568 0  0.005793999880552292 0.02289599925279617 0  0.006508000195026398 0.02334300056099892 0  0.005840000230818987 0.02399500086903572 0  0.00661400007084012 0.02433099970221519 0  0.02535000070929527 0.04799199849367142 0  0.02155099995434284 0.05050399899482727 0  0.02114599943161011 0.05143100023269653 0  0.02055899985134602 0.0507190003991127 0  0.02213600091636181 0.05121500045061111 0  0.02798900008201599 0.04997599869966507 0  0.01635400019586086 0.03396999835968018 0  0.0155220003798604 0.03385800123214722 0  0.01587799936532974 0.03293099999427795 0  0.01142300013452768 0.03951000049710274 0  0.01054699998348951 0.03952699899673462 0  0.010945999994874 0.0386039987206459 0  0.01006899960339069 0.03862199932336807 0  0.009669999592006207 0.0395440012216568 0  0.009589999914169312 0.03771600127220154 0  0.01046899985522032 0.03770000115036964 0  0.0110240001231432 0.04043399915099144 0  -0.02649500034749508 0.06825599819421768 0  -0.02544100023806095 0.06873500347137451 0  -0.02638999931514263 0.06903000175952911 0  -0.02478699944913387 0.06814000010490417 0  -0.02442000061273575 0.06898300349712372 0  -0.02342999912798405 0.06922800093889236 0  -0.02389200031757355 0.06988699734210968 0  -0.02287299931049347 0.06859300285577774 0  -0.0224590003490448 0.06945700198411942 0  -0.02295799925923347 0.07011000066995621 0  -0.02669399976730347 0.06653399765491486 0  -0.01808900013566017 0.0814410001039505 0  -0.01902199909090996 0.08124800026416779 0  -0.01803199946880341 0.08959099650382996 0  -0.01889999955892563 0.08946999907493591 0  -0.01832200028002262 0.08884000033140182 0  -0.0191859994083643 0.08872299641370773 0  -0.01861000061035156 0.08808200061321259 0  -0.01729599945247173 0.09195400029420853 0  -0.0164599996060133 0.09208399802446365 0  -0.01625600084662437 0.09281200170516968 0  -0.01345600001513958 0.0846019983291626 0  -0.01086900010704994 0.07914099842309952 0  -0.009929999709129333 0.07934200018644333 0  -0.01044800039380789 0.07999599725008011 0  -0.01007100008428097 0.08082900196313858 0  -0.009535999968647957 0.08018500357866287 0  -0.01463999971747398 0.0767500028014183 0  -0.01511500030755997 0.07585500180721283 0  -0.01416399981826544 0.0760670006275177 0  -0.01321399956941605 0.0762770026922226 0  -0.01367999985814095 0.07538499683141708 0  -0.01751199923455715 0.07926200330257416 0  -0.0170269999653101 0.07858599722385406 0  -0.01797899976372719 0.07837700098752975 0  -0.01893199980258942 0.07817000150680542 0  -0.02348800003528595 0.07076600193977356 0  -0.0240119993686676 0.07300599664449692 0  -0.02360899932682514 0.07387399673461914 0  -0.02256599999964237 0.02421499975025654 0  -0.02284000068902969 0.02479000017046928 0  -0.02302400022745132 0.0253519993275404 0  -0.02322199940681458 0.02595599927008152 0  -0.02236000075936317 0.02601199969649315 0  -0.01967000029981136 0.02394899912178516 0  -0.01880300045013428 0.0240240003913641 0  -0.02054099924862385 0.02384299971163273 0  -0.02200900018215179 0.02304399944841862 0  -0.01776699908077717 0.01834399998188019 0  -0.01739300042390823 0.01910500042140484 0  -0.01845999993383884 0.01874000020325184 0  -0.01705599948763847 0.01793899945914745 0  -0.01838099956512451 0.02316999994218349 0  -0.01669000
[...]
<PointData  Scalars="pressure"> 
<DataArray  type="Float64"  Name="pressure"  format="ascii">4.1633481853803181e-02  4.1921215552267910e-02  4.1758942114524009e-02  4.2013537053809100e-02  4.1497092051062084e-02  4.1835258130721739e-02  4.2117739465847577e-02  4.2273723882169066e-02  4.2385361350044025e-02  4.1952423307833962e-02  3.8890714079925184e-02  3.9177467454470177e-02  3.8955274350718577e-02  3.9259202345798445e-02  2.9376665875729149e-02  2.9223204476039457e-02  2.9567114280562103e-02  3.2574356738848079e-02  3.2327119927791755e-02  3.2523433811870631e-02  3.2406861204494139e-02  2.2107550776775758e-02  2.2704260253751007e-02  2.2115980389142378e-02  2.5374756752966601e-02  2.4891999111402781e-02  2.5133340998512544e-02  2.5160630241685585e-02  4.2907063136729026e-02  4.2874609221096857e-02  4.3078104191600256e-02  4.3256441375267692e-02  4.3099710837620500e-02  4.3050612918394279e-02  4.2816446096640995e-02  4.2754318756369571e-02  4.3016747993552408e-02  4.2694175279372151e-02  4.2757991203062944e-02  4.2465542541058381e-02  4.2257941497985278e-02  4.2452992389803594e-02  4.2197526848774106e-02  4.1373605224360364e-02  4.1175576858078641e-02  4.0970569798027115e-02  4.1580968950988187e-02  4.1748154374480234e-02  4.1957647711884385e-02  3.1704951782954349e-02  2.9280638352980674e-02  3.1524972318062026e-02  5.0707152836311407e-02  5.1012309983962903e-02  5.2234145312944937e-02  5.2904037060744508e-02  5.1890618339722354e-02  5.4698812314298191e-02  5.1090219081389276e-02  4.9969319935163597e-02  2.1248766802538344e-02  2.0961058998464305e-02  2.1466045030855446e-02  2.1230379159684839e-02  2.4638497605621399e-02  2.4769596104877559e-02  2.4650911691350138e-02  2.4626269979980756e-02  2.3646163050284330e-02  2.3408227948420478e-02  2.3565362402750617e-02  2.2462318901224444e-02  2.2107971607750819e-02  2.2491605722349470e-02  2.2834705779495350e-02  2.2488138609747969e-02  2.2899043152365677e-02  2.3820996824116321e-02  2.3948660260694827e-02  2.4079187993015453e-02  2.3460975934500441e-02  2.3758325115570078e-02  2.3531617455902040e-02  1.2038702158649051e-02  1.3137776055743670e-02  1.3450100677829854e-02  1.1530979950988042e-02  1.1867513986315831e-02  1.2149125578060374e-02  3.8829141216582597e-02  3.8851142100292071e-02  3.8850405191859123e-02  3.8912738926577185e-02  3.9610034586097645e-02  3.9748740321020853e-02  3.9803150972523370e-02  3.9530085390803223e-02  3.9735848087804823e-02  3.9424549120177718e-02  4.0681708663831230e-02  4.0347899580634380e-02  4.0230830792767361e-02  3.9837483414484037e-02  4.0107834782520647e-02  3.9937129981256599e-02  4.0806839980689805e-02  4.0742377741914214e-02  4.1185270450728881e-02  4.0987496152556605e-02  3.9548303078764870e-02  4.5497218983900210e-02  4.5005128610703771e-02  4.5026351547070999e-02  4.4490468558026040e-02  4.5066524011532307e-02  4.4685747583609672e-02  3.9527947100872006e-02  3.9381570092821457e-02  3.9243440007904778e-02  3.9014975627463089e-02  3.8937678918292924e-02  3.9075321848327779e-02  4.5606950248659114e-02  4.5512936373932403e-02  4.6288492101818707e-02  4.6336545363378542e-02  2.0162082327006958e-02  2.1780328031019751e-02  2.0119874823246280e-02  4.5239518861126496e-02  4.4950253752219067e-02  4.5245287425066137e-02  4.6481474710177682e-02  4.6288618034141131e-02  4.6583973773229988e-02  4.6407810010878930e-02  4.5898837633683742e-02  4.6275142211747576e-02  4.6105713962462019e-02  4.6513899573183810e-02  4.5739231327379476e-02  4.5210270343648898e-02  4.5539319787597857e-02  4.5274232288677864e-02  4.4802266198632340e-02  4.4532125199834641e-02  4.8337736553092453e-02  4.8391271937836350e-02  4.7083183342547179e-02  4.6954437022208147e-02  4.3078919552941658e-02  4.3158246843332942e-02  4.3218550718498512e-02  4.3289267404549629e-02  4.3907754323462868e-02  3.8067111030731404e-02  3.6679608304322035e-02  3.6609562301984561e-02  3.8180027102513066e-02  4.5369448102702416e-02  4.3069738449033744e-02  4.3116446757083787e-02  4.3178018594957977e-02  3.9513190428766123e-02  3.9117102774378396e-02  4.0230279264895648e-02  3.9900713477065378e-02  3.8722455908602911e-02  4.0646102946055758e-02  4.0922562904340848e-02  3.8342236365716584e-02  3.2194987819026549e-02  3.2071614283750695e-02  3.1895778873386439e-02  3.2191274024509990e-02  3.1714556256676733e-02  3.1335616695770160e-02  3.1090961923851523e-02  3.1529996570844848e-02  3.0901269659690467e-02  3.0712908613547835e-02  3.2919303222529693e-02  2.4934570088818483e-02  2.5340230097448999e-02  2.5000050962875428e-02  2.5188471237370950e-02  2.5104804021906929e-02  2.5276489397312953e-02  2.5190304954104643e-02  2.4729377897476701e-02  2.4517787517908847e-02  2.4416880636262191e-02  2.2697812496825499e-02  1.8827455293817637e-02  1.7933815896175584e-02  1.8676179420353128e-02  1.8527709788619239e-02  1.7767044015860010e-02  2.2343226592883094e-02  2.2819568741131203e-02  2.1791901754058544e-02  2.0801950561999898e-02  2.1198440487367680e-02  2.4611615926022769e-02  2.4314071146190983e-02  2.4939211046135050e-02  2.5518498384146483e-02  3.0531077950671118e-02  2.9505852193478909e-02  2.8967433377102204e-02  4.2918436875780681e-02  4.3056583625684340e-02  4.3176689956173110e-02  4.3285313820492145e-02  4.3268878995503655e-02  4.2554771360848086e-02  4.2466505745704007e-02  4.2636929220351082e-02  4.2603953315639001e-02  4.0749813330710156e-02  4.0771739568693212e-02  4.0984623876342274e-02  4.0507099790767206e-02  4.2128598967849394e-02  4.1806667344461652e-02  4.2078603860707130e-02  4.2206698721254127e-02  4.5417926987742302e-02  4.5886682386125782e-02  4.5756162387017019e-02  4.0567956342038268e-02  4.1418451732829417e-02  4.1892346651088250e-02  4.1942372754647031e-02  4.1382131046095415e-02  4.0918352052825679e-02  4.2369499831512246e-02  4.2850982066572021e-02  4.2908405914425934e-02  4.7798665714337288e-02  4.7775046386539843e-02  4.8844037185707900e-02  4.3114867829692101e-02  4.4644549354452556e-02  4.4309240260988501e-02  3.5151739770539127e-02  3.4993209769895173e-02  3.3590297214328255e-02  2.9533746012456286e-02  5.4698730714106858e-02  5.5977640009016290e-02  5.3841477592875289e-02  5.2615321619052059e-02  5.3892479011517010e-02  5.3094568912476922e-02  4.6766762425234969e-02  4.5482565062760175e-02  4.5222797848524565e-02  4.3986672322209833e-02  4.9613145627975357e-02  5.1332038465728425e-02  5.1028697982044006e-02  5.1612696259684010e-02  5.1270285138645247e-02  4.9853579416706748e-02  4.9712861886274801e-02  4.6883945168707163e-02  4.4769667051117581e-02  4.3992903810972803e-02  4.7180808531209477e-02  4.8940181811139093e-02  4.6760855107803916e-02  4.9058053754930511e-02  2.1841449243743073e-02  2.2230645943218080e-02  2.2167522484989231e-02  2.1733257205255391e-02  2.0670041294803532e-02  2.0525735597512567e-02  1.9880315649182943e-02  1.9753329237839280e-02  2.1694300930984820e-02  2.4508301014667454e-02  2.3787215707137623e-02  2.3959317921316579e-02  2.4006178386987959e-02  2.3756409686234655e-02  2.3862795099250909e-02  2.3645876068963474e-02  2.3802912683618706e-02  2.3709883924935723e-02  2.3549967871455423e-02  1.8901520326057866e-02  1.8730769799179314e-02  1.7997949186783789e-02  2.1513397858947715e-02  2.2096525098728372e-02  2.2108274527382954e-02  2.3852102377522749e-02  2.2075093319794320e-02  2.2515035530352064e-02  2.2549859544460083e-02  2.3784117906391272e-02  2.3858998920763409e-02  2.3667516087162305e-02  2.3509723819316118e-02  2.3462285126892708e-02  2.2813837657956075e-02  2.3143985065039646e-02  2.3094364927564965e-02  2.3197087275126663e-02  2.3320034565479961e-02  2.3057761396090594e-02  2.3574302428480839e-02  2.4051141250935600e-02  2.4165043795207446e-02  2.3939116094965494e-02  2.3391351381448485e-02  2.2991773421991393e-02  2.2789517178824586e-02  2.2759857937881982e-02  2.2422896187305343e-02  2.2688121153081324e-02  2.2451057774640733e-02  2.2727868544810934e-02  2.2874099872673078e-02  2.1255989371799237e-02  2.1700776307732546e-02  2.1376819149668394e-02  2.1207162175554923e-02  2.1506686619895882e-02  2.1495072790618710e-02  2.1216878843143380e-02  2.1282860912295181e-02  2.1450632621104932e-02  2.1705358129171213e-02  3.5681338180533220e-02  3.6263165711274983e-02  3.7825377302353302e-02  3.4218450104819984e-02  3.3623994125299213e-02  2.2756299665469371e-02  2.2286771803453405e-02  2.2952546109799268e-02  2.3607561080889985e-02  2.3383049888644317e-02  2.3449648875421863e-02  2.2318986690149849e-02  2.2136514305419228e-02  2.2689159489965874e-02  1.8768861130945756e-02  2.0134297268344949e-02  1.8299506618435095e-02  1.6983919160537833e-02  1.6524743996784285e-02  1.7938083101455688e-02  1.2179287407504409e-02  1.1737640207433335e-02  1.2498033633972491e-02  1.1506283513034635e-02  1.2894558891964059e-02  1.6377218906120615e-02  1.6825106468426752e-02  1.5959111066437295e-02  2.3428803913751191e-02  2.3510132439152572e-02  2.5190866195459731e-02  3.5303612184360580e-02  3.3652233349161717e-02  3.5322724592168231e-02  3.3652000663683831e-02  3.5200887497118000e-02  3.3737105061041377e-02  3.3868195348415689e-02  4.5967320592132460e-02  4.6332197506589096e-02  4.6399010746300262e-02  8.3288057364492227e-03  8.3530109830447161e-03  1.0097290326440321e-02  7.2323987841580104e-03  8.9650304935243244e-03  7.5964849881015664e-03  6.6369771342663086e-03  7.9684865976530836e-03  2.0576425400770312e-02  2.1662964771124373e-02  2.1113371276407354e-02  1.9946695307620946e-02  2.5263495713215876e-02  2.5211916204827815e-02  2.6282057676461287e-02  2.5248961034598321e-02  2.4091479256784704e-02  2.3888695935918466e-02  2.5131182309309066e-02  2.6769362029719086e-02  2.4983668759214400e-02  2.1536982783929935e-02  2.2230330021082125e-02  2.3520185479305442e-02  2.0607251259535837e-02  1.4060154144785869e-02  1.3162609980701533e-02  1.4659462151087446e-02  1.7736636163155888e-02  1.6645166159075086e-02  1.6305927889365374e-02  1.4260788249282709e-02  1.2761677855322652e-02  1.3413332508385292e-02  1.2010818469784267e-02  1.4850250285301951e-02  1.5300140121457063e-02  1.1423693457049695e-02  1.2271277948739043e-02  1.1853303370186918e-02  1.4646150204185651e-02  1.8098924068415040e-02  1.8548587883948552e-02  1.6693920945742263e-02  1.6317957057373832e-02  1.3974291941584963e-02  1.2238628765122578e-02  1.2778461728016041e-02  1.1654516230814267e-02  1.1697073241502938e-02  1.1159360280126977e-02  1.2470388978681732e-02  1.4493502714846972e-02  1.3702355422211446e-02  1.4360669865128871e-02  4.0568354177753355e-02  4.0248036430957201e-02  4.0021659148920218e-02  4.0194563715278020e-02  4.0095525557706263e-02  3.9398459295030046e-02  3.9287849416299217e-02  3.9517287580248438e-02  3.9311390692062936e-02  3.9164499018573433e-02  3.9021859889553201e-02  3.9012177299037047e-02  4.4936259922932716e-02  4.4501643635078629e-02  4.4462143442224489e-02  4.4846732910462303e-02  4.4503259661505888e-02  4.3958104433624114e-02  4.4457660223342840e-02  4.3890761702427457e-02  4.4368323805011316e-02  4.3795433851690449e-02  4.4851230004409097e-02  4.1837454738589720e-02  4.2195102365789536e-02  4.1793049321463764e-02  4.2593890796918749e-02  4.2564858470767873e-02  3.9165221012655162e-02  3.9574597053312295e-02  3.3127351043189750e-02  3.3101695923712794e-02  3.3256727833412644e-02  3.3190360721481592e-02  3.3181136884225873e-02  3.4796528369176412e-02  3.6770379976697111e-02  3.6313695284642789e-02  3.6167778498679096e-02  3.5060885656186910e-02  3.6577537665623765e-02  3.5846828211909848e-02  3.3676432935253714e-02  3.4399578491434248e-02  2.7689196774927018e-02  3.9157874616225365e-02  3.9534815886889813e-02  4.0511315883989769e-02  4.4622934506534984e-02  4.1044901632706500e-02  4.1943573109163794e-02  4.2627237014360865e-02  4.3600194349820473e-02  4.6914022554756823e-02  4.7192966968482797e-02  4.6817422986109407e-02  4.7226710389397561e-02  4.6925361209222125e-02  4.6610311733621318e-02  4.6672279430795667e-02  4.0653231088147002e-02  4.2144088859648307e-02  4.1164486063567422e-02  4.3379479762612354e-02  4.2988625686211479e-02  4.2610385241370313e-02  4.4731928176860697e-02  4.5497096501270359e-02  4.5520463882779659e-02  4.5860418805721517e-02  4.5255087471425655e-02  4.4888213515345693e-02  4.5364922590479521e-02  4.2542818543126054e-02  4.3552078679067595e-02  4.2171496540032008e-02  4.0592441909859438e-02  4.1581262570597605e-02  3.9920217345703252e-02  4.4339618212157622e-02  4.4403024652682359e-02  4.3806367723393164e-02  4.1798227906814103e-02  4.3479197570525693e-02  1.7895261840267337e-02  1.7428402498440944e-02  1.6884756380532863e-02  2.6629432034336559e-02  2.6759964827266607e-02  2.8415581301878566e-02  2.5142296341571283e-02  8.0096076901909202e-03  7.6444399748592448e-03  7.1183360158615511e-03  8.6060726751362171e-03  8.8979070624951376e-03  8.4115681417803179e-03  1.8201512934959269e-02  1.9515157944544278e-02  1.8514144035665321e-02  1.6923092788209054e-02  1.7971172036713820e-02  1.4589852732390253e-02  1.4794590185809940e-02  1.3514160413297081e-02  1.7172566549668856e-02  1.5849326690091231e-02  1.3126760154252244e-02  1.2660064414871476e-02  1.2079410715535518e-02  1.3683106849181358e-02  1.4250596279071971e-02  1.3790435845733272e-02  1.0468121568840964e-02  1.0724857489038161e-02  1.1406369984953611e-02  2.3595835658349825e-02  2.4175292104330531e-02  2.3589679582128764e-02  1.7152221522403435e-02  1.8012466519612975e-02  4.5486198057479187e-02  4.6750038634527286e-02  4.6893661152524212e-02  4.6981383080165216e-02  4.6508742776200228e-02  4.6618678015299453e-02  4.6764378134311037e-02  4.6739587802982735e-02  4.6046967932428157e-02  4.6341695601119177e-02  4.6658264935869685e-02  4.5436866918190211e-02  4.5726483200074095e-02  4.5274065650708205e-02  4.5594947657567594e-02  4.3652304868120870e-02  4.2850262428624157e-02  3.9046172439497533e-02  3.7863767636590981e-02  3.7865833755251488e-02  4.5170264293633411e-02  4.5542602354628092e-02  4.5029682114997208e-02  4.5877313953828797e-02  4.5723037377707859e-02  4.3364619979578092e-02  4.3248871791694031e-02  4.3279058497637281e-02  4.3345130077325371e-02  4.3453927665504329e-02  4.3332948708260322e-02  4.3391517900211458e-02  4.3240518909272038e-02  4.3385464198163734e-02  4.3212966752446035e-02  4.3052030120317844e-02  4.3106300680907234e-02  4.3274649346239279e-02  4.2946858658645760e-02  4.3178193216287297e-02  4.2907535606549085e-02  4.3190316462792699e-02  4.3184219509627073e-02  4.3446453728317985e-02  4.2893329968577726e-02  4.2607165914432199e-02  3.6749606625394615e-02  3.6807686752324098e-02  3.5235552400164245e-02  4.1014184089118985e-02  3.9626613885054549e-02  4.0860786125202338e-02  4.0698344558026955e-02  4.1948489365634264e-02  3.9463384449482462e-02  4.4664852404739913e-02  4.3763076646124555e-02  4.3662269294841363e-02  2.6982305559456819e-02  2.6086706264123197e-02  2.7536086544550017e-02  3.6180566123232547e-02  3.6950442039305212e-02  3.8101988524151538e-02  4.3206310224123856e-02  4.3188371477094915e-02  4.3122223883270729e-02  4.3131181762094246e-02  4.3179576562117905e-02  4.3113222101749595e-02  4.3028268025114953e-02  4.3179305874763978e-02  4.3006480853693546e-02  4.3612468563635445e-02  4.3816949280300860e-02  4.3768083811669807e-02  4.3552931426831420e-02  4.3424523560693686e-02  4.3348690219951226e-02  4.3136320388601573e-02  4.3249203969080538e-02  4.3097376312272111e-02  4.3126581658809851e-02  4.3060195149853285e-02  4.2997169453329487e-02  4.3114689779029373e-02  4.3136508718262599e-02  4.3057216216452927e-02  4.3041812507832670e-02  4.2766578121080076e-02  4.2315357076823316e-02  4.2200668353403102e-02  4.1583610015180995e-02  3.6270227476391012e-02  3.7071998796774530e-02  3.5781975316315918e-02  3.5522804671986916e-02  3.6845501834599594e-02  4.3221855640771779e-02  4.0578454111754605e-02  3.9926412286897965e-02  3.8073760940471275e-02  3.7542159477229393e-02  3.5471277819254514e-02  3.6835766596360217e-02  3.6138755620442553e-02  3.7449143670595264e-02  3.8109595856221319e-02  3.8811704736062623e-02  3.9257812535907842e-02  3.7580334734238004e-02  3.7872025501824079e-02  2.8910423035998542e-02  2.8879704006878278e-02  2.7995195184028036e-02  3.9189996604309593e-03  3.6610389107455260e-03  2.5459465518366808e-03  3.0078456079258974e-02  2.9918076211202432e-02  3.1390710588676131e-02  3.2392815954959152e-02  2.4781296595585731e-02  2.4512982971222633e-02  2.4459529907243042e-02  2.4999473421088936e-02  2.5061208476980901e-02  2.1920421999880903e-02  2.2821894435381938e-02  2.5667940409891739e-02  2.5573183406075728e-02  2.5658741775245502e-02  2.4656756184417272e-02  2.5133006830203152e-02  2.4851533412863617e-02  2.5295002287223797e-02  2.4788325142224517e-02  2.5177965961307482e-02  2.4681148368854697e-02  2.4906898183589429e-02  2.4839012744313899e-02  2.4995462750627917e-02  2.5025053578797734e-02  2.5089222438753868e-02  2.5086377949553318e-02  2.5193646047380298e-02  2.5041376171528781e-02  2.5164175836385506e-02  2.4999341679768822e-02  2.5079723980299402e-02  2.2696386369732192e-02  2.4877209932524891e-02  1.7599957632384908e-02  1.8435047582397422e-02  1.7501658259036303e-02  1.6724563868687353e-02  1.9286099904642456e-02  1.8429447549066010e-02  1.9220880846030190e-02  1.5079228659168199e-02  1.5869188287039159e-02  1.5128644676873481e-02  1.6707182757569303e-02  1.5843643295868969e-02  1.8336810760978602e-02  1.9239502587767545e-02  1.9316341713739610e-02  2.0017285349872006e-02  2.1429996721681215e-02  1.6778021875631131e-02  1.6940677653583092e-02  2.3616933112880736e-02  2.3250133849625654e-02  2.2304334988106134e-02  2.3299856729530725e-02  2.2833445945390572e-02  2.4376339080073584e-03  3.7678544371668246e-03  2.3922311816193215e-02  2.4312791125020158e-02  2.3419302028290640e-02  2.6812863630165010e-02  2.6711790733328841e-02  2.6062315010410574e-02  2.9543531637469554e-02  2.8904012343838020e-02  2.8852585054290270e-02  2.3985863760632862e-02  2.5336575588678131e-02  2.4699170111207980e-02  2.5121463773332867e-02  2.9741196481617584e-02  2.9914110835117837e-02  2.8772213509744914e-02  2.8448002126486995e-02  2.8671270864644431e-02  4.3404562144878013e-02  4.3385028803977800e-02  4.3509054090615867e-02  4.3524692018220762e-02  4.3460845249304325e-02  4.1368189839547105e-02  4.1228943782928955e-02  4.1022048696531241e-02  4.0703565592620061e-02  4.1402899859100853e-02  4.1280783449702381e-02  4.1627370545981465e-02  4.3820580155392454e-02  4.3975925006767669e-02  4.3837480375392861e-02  4.3907466609627792e-02  4.3832592069901283e-02  4.3754256991203326e-02  4.3841106546163078e-02  4.4004677014190488e-02  4.4109579674230667e-02  4.4298088818011255e-02  4.4159417954890416e-02  4.4421564320913667e-02  4.4245968718629451e-02  4.3912497514278392e-02  4.4603385467858511e-02  4.4477238002194525e-02  4.4467355780683435e-02  4.4275787219998544e-02  4.3642230112800391e-02  4.3684572338323804e-02  4.3701501371008401e-02  4.3244800215057555e-02  4.3234696682292739e-02  4.2493181575481133e-02  3.9401171284763656e-02  3.8573719410628551e-02  3.8631209929139099e-02  3.9386416302052522e-02  4.5590641518695525e-02  4.6004665336798076e-02  4.4978781210896462e-02  4.5379355456331504e-02  4.5157206562039899e-02  4.4585517744302618e-02  4.4722302226153136e-02  4.4713529300087707e-02  4.4657880331938092e-02  4.4834433429503245e-02  4.4980802660624375e-02  4.4640865599214097e-02  4.5516301297877364e-02  4.5246233467378751e-02  4.4975722772366979e-02  4.5247342704928382e-02  4.3192871970382886e-02  4.2816320651928579e-02  4.3169919589359854e-02  4.3552785677522098e-02  4.3134289948417975e-02  4.2474204156601282e-02  4.3005910258956344e-02  4.2531189743489739e-02  4.4009391778083488e-02  4.3988394845890399e-02  4.4015834420062704e-02  4.3053903745914154e-02  4.2003608027630195e-02  4.3999146593199485e-02  4.3459842767767182e-02  4.3497091102107449e-02  4.3399544573415806e-02  4.0482836707328100e-02  4.0023151970673541e-02  4.0973321785863499e-02  4.1853152706279276e-02  4.1361863178262244e-02  4.1816168741975551e-02  4.6979226500872259e-02  4.633948504