<?xml version="1.0"?>
<VTKFile type="UnstructuredGrid"  version="0.1"  >
<UnstructuredGrid>
<Piece  NumberOfPoints="6340" NumberOfCells="12376">
<Points>
<DataArray  type="Float64"  NumberOfComponents="3"  format="ascii">-0.01924300007522106 0.02074499987065792 0  -0.02004799991846085 0.0214029997587204 0  -0.02023999951779842 0.02040999941527843 0  -0.02092899940907955 0.0211970005184412 0  -0.01945200003683567 0.01982799917459488 0  -0.01911200024187565 0.02161700092256069 0  -0.01971700042486191 0.02236099913716316 0  -0.01923700049519539 0.02316999994218349 0  -0.0203079991042614 0.02314599975943565 0  -0.0186379998922348 0.02234300039708614 0  -0.007581999991089106 0.01873699948191643 0  -0.008268999867141247 0.01951600052416325 0  -0.008590999990701675 0.01857800036668777 0  -0.009286999702453613 0.0193949993699789 0  -0.02647499926388264 0.08035600185394287 0  -0.02741600014269352 0.08097200095653534 0  -0.02761499956250191 0.08016400039196014 0  -0.0274449996650219 0.07337799668312073 0  -0.0280349999666214 0.07426600158214569 0  -0.02829599939286709 0.07333400100469589 0  -0.02902000024914742 0.07393000274896622 0  -0.01225700043141842 0.09089100360870361 0  -0.01326099969446659 0.09088599681854248 0  -0.01276700012385845 0.09001699835062027 0  -0.02039800025522709 0.08568199723958969 0  -0.0193840004503727 0.08568199723958969 0  -0.019896000623703 0.08654800057411194 0  -0.01988700032234192 0.08481500297784805 0  -0.02238300070166588 0.02478300034999847 0  -0.02136600017547607 0.02479499951004982 0  -0.02187499962747097 0.02565399929881096 0  -0.0223350003361702 0.02651700004935265 0  -0.02291199937462807 0.0256549995392561 0  -0.02084900066256523 0.02567099966108799 0  -0.02033700048923492 0.02481799945235252 0  -0.01929700002074242 0.02483999915421009 0  -0.01982199959456921 0.02568599954247475 0  -0.02186699956655502 0.02390200085937977 0  -0.02298399992287159 0.02395300008356571 0  -0.02219999954104424 0.02264999970793724 0  -0.02158300019800663 0.02194399945437908 0  -0.0213370006531477 0.02303100004792213 0  -0.02069099992513657 0.02222399972379208 0  -0.01570999994874001 0.02210400067269802 0  -0.01622300036251545 0.02121599949896336 0  -0.01516999956220388 0.02125700004398823 0  -0.01669199950993061 0.02216299995779991 0  -0.01770900003612041 0.02216099947690964 0  -0.01721600070595741 0.02304200083017349 0  0.04268199950456619 0.08431600034236908 0  0.04240800067782402 0.08342800289392471 0  0.04371799901127815 0.08376699686050415 0  0.04488899931311607 0.09601300209760666 0  0.04568200185894966 0.09643000364303589 0  0.04467099905014038 0.09692499786615372 0  0.02839899994432926 0.1048920005559921 0  0.02847900055348873 0.1039350032806396 0  0.0293940007686615 0.1044050008058548 0  0.02748499996960163 0.1053399965167046 0  0.02753799967467785 0.1041779965162277 0  -0.004259999841451645 0.09962700307369232 0  -0.003256999887526035 0.09962199628353119 0  -0.003762000007554889 0.1004969999194145 0  -0.002758000046014786 0.100492000579834 0  -0.01669899933040142 0.1012070029973984 0  -0.01721400022506714 0.1004630029201508 0  -0.01603499986231327 0.1005550026893616 0  -0.01771200075745583 0.1014339998364449 0  -0.0116370003670454 0.1074810028076172 0  -0.01174599956721067 0.1084280014038086 0  -0.01250800024718046 0.1076690033078194 0  -0.008768999949097633 0.09877300262451172 0  -0.007766999769955873 0.09877099841833115 0  -0.008275000378489494 0.09964700043201447 0  -0.009770999662578106 0.09877300262451172 0  -0.00926200021058321 0.09789899736642838 0  -0.01026399992406368 0.09789899736642838 0  -0.01230200007557869 0.1013450026512146 0  -0.01277100015431643 0.102182999253273 0  -0.01334199961274862 0.1013299971818924 0  -0.0112880002707243 0.09963999688625336 0  -0.01230499986559153 0.09964100271463394 0  -0.01178199984133244 0.09877400100231171 0  0.01334299985319376 0.095210000872612 0  0.01434899959713221 0.095210000872612 0  0.01384599972516298 0.09607700258493423 0  0.007837999612092972 0.07873199880123138 0  0.008341000415384769 0.07786399871110916 0  0.008843000046908855 0.0787310004234314 0  -0.007280000019818544 0.01789999939501286 0  -0.006455999799072742 0.01816499978303909 0  -0.00815299991518259 0.01772399991750717 0  -0.009064000099897385 0.01754100061953068 0  -0.01274000015109777 0.01724000088870525 0  -0.01300700008869171 0.01828699931502342 0  -0.01361500006169081 0.01738099940121174 0  -0.01217599958181381 0.01815400086343288 0  -0.01221199985593557 0.01915599964559078 0  -0.01135099958628416 0.01837800070643425 0  -0.01177099999040365 0.02204700000584126 0  -0.01225099992007017 0.02108599990606308 0  -0.01130199991166592 0.02118100039660931 0  -0.01082600001245737 0.02037299983203411 0  -0.0102779995650053 0.02122999913990498 0  -0.01178000029176474 0.02017699927091599 0  -0.01273200009018183 0.02201100066304207 0  -0.01417300011962652 0.02117599919438362 0  -0.01468800008296967 0.02209999971091747 0  -0.01369800046086311 0.02204100042581558 0  -0.00877899955958128 0.02035300061106682 0  -0.01073999982327223 0.03091100044548512 0  -0.01124399993568659 0.03003400005400181 0  -0.01023699995130301 0.03003500029444695 0  -0.005204999819397926 0.03004200011491776 0  -0.005710000172257423 0.03091800026595592 0  -0.006209999788552523 0.03003999963402748 0  -0.007807000074535608 0.02048199996352196 0  -0.005291999783366919 0.02010799944400787 0  -0.006279999855905771 0.01988700032234192 0  -0.005491000134497881 0.01926900073885918 0  -0.005566000007092953 0.0184519998729229 0  -0.004579999949783087 0.01876999996602535 0  0.04660499840974808 0.09197200089693069 0  0.04750800132751465 0.09154000133275986 0  0.04718099907040596 0.09265899658203125 0  0.04612100124359131 0.09275099635124207 0  0.01693500019609928 0.05963199958205223 0  0.01794500090181828 0.05962900072336197 0  0.01743699982762337 0.06049700081348419 0  0.03096799924969673 0.04557399824261665 0  0.03148100152611732 0.04454800114035606 0  0.03190699964761734 0.04532400146126747 0  0.03294000029563904 0.04998400062322617 0  0.03387799859046936 0.04937399923801422 0  0.03421700000762939 0.05014900118112564 0  0.03264199942350388 0.05343899875879288 0  0.03166799992322922 0.05344599857926369 0  0.03222399950027466 0.05254499986767769 0  0.03178999945521355 0.05168899893760681 0  0.03282200172543526 0.05164999887347221 0  0.03122000023722649 0.0525749996304512 0  0.03067399933934212 0.05346500128507614 0  0.03073900006711483 0.05173999816179276 0  0.0302130002528429 0.05092199891805649 0  0.02969300001859665 0.05177599936723709 0  0.02916399948298931 0.05094299837946892 0  0.044149000197649 0.09432800114154816 0  0.04310600087046623 0.09433099627494812 0  0.04362300038337708 0.09347900003194809 0  0.04259999841451645 0.09344899654388428 0  0.008832000195980072 0.02547900006175041 0  0.009630000218749046 0.02593000046908855 0  0.008826999925076962 0.026528000831604 0  0.009699000045657158 0.02687500044703484 0  0.02865399979054928 0.05179899930953979 0  0.02455399930477142 0.0535539984703064 0  0.02404399961233139 0.05441800132393837 0  0.02353500016033649 0.05355900153517723 0  0.02506300061941147 0.05441199988126755 0  0.03115399926900864 0.05434000119566917 0  0.02034099958837032 0.03627900034189224 0  0.01940600015223026 0.03612999990582466 0  0.01985999941825867 0.03525799885392189 0  0.01443499978631735 0.04138699918985367 0  0.0134290000423789 0.04139100015163422 0  0.0139359999448061 0.04051699861884117 0  0.01292899996042252 0.04052200168371201 0  0.01242300029844046 0.04139500111341476 0  0.01242799963802099 0.03965499997138977 0  0.01343700010329485 0.03965000063180923 0  0.01392900012433529 0.04225999861955643 0  -0.02883400022983551 0.07484400272369385 0  -0.02768599987030029 0.07511799782514572 0  -0.0286640003323555 0.07568000257015228 0  -0.02704199962317944 0.07429499924182892 0  -0.02659000083804131 0.075143001973629 0  -0.02552700042724609 0.07517299801111221 0  -0.02596399933099747 0.07602100074291229 0  -0.02498899959027767 0.07433000206947327 0  -0.02448599971830845 0.07518900185823441 0  -0.02496200054883957 0.07603900134563446 0  -0.02916000038385391 0.0729840025305748 0  -0.01938199996948242 0.08740799874067307 0  -0.0204050000756979 0.08741000294685364 0  -0.01771399937570095 0.09698600322008133 0  -0.01872099936008453 0.09702300280332565 0  -0.01822499930858612 0.09613700211048126 0  -0.0192280001938343 0.09617900103330612 0  -0.01873400062322617 0.09528700262308121 0  -0.01632099971175194 0.09970799833536148 0  -0.01535299979150295 0.09969600290060043 0  -0.0149569995701313 0.1005420014262199 0  -0.0137729998677969 0.09001299738883972 0  -0.01179200038313866 0.08307799696922302 0  -0.01078199967741966 0.08307799696922302 0  -0.01128599978983402 0.08394499868154526 0  -0.01077899988740683 0.08481299877166748 0  -0.0102760000154376 0.08394599705934525 0  -0.01583500020205975 0.08134099841117859 0  -0.01634000055491924 0.08047199994325638 0  -0.01532999984920025 0.08047399669885635 0  -0.01431899983435869 0.08047500252723694 0  -0.01482500042766333 0.07960700243711472 0  -0.01887499913573265 0.08481399714946747 0  -0.01836800016462803 0.08394599705934525 0  -0.01937999948859215 0.08394700288772583 0  -0.02039399929344654 0.08394999802112579 0  -0.0254720002412796 0.07689899951219559 0  -0.02586999908089638 0.07950200140476227 0  -0.02541100047528744 0.08035799860954285 0  -0.02339800074696541 0.02464199997484684 0  -0.02380000054836273 0.02531000040471554 0  -0.02410100027918816 0.02598999999463558 0  -0.02442399971187115 0.02672299928963184 0  -0.02333899959921837 0.02656099945306778 0  -0.01980100013315678 0.0239889994263649 0  -0.01875000074505806 0.02400000020861626 0  -0.0208550002425909 0.0239460002630949 0  -0.02257999964058399 0.02328200079500675 0  -0.01714600063860416 0.01838799938559532 0  -0.01676999963819981 0.01915499940514565 0  -0.01795000024139881 0.0187199991196394 0  -0.01632199995219707 0.01804699935019016 0  -0.01818899996578693 0.02314399927854538 0  -0.01620600000023842 0.0
[...]
<PointData  Scalars="pressure"> 
<DataArray  type="Float64"  Name="pressure"  format="ascii">5.9139754649034260e-02  5.8905287616333693e-02  5.9004522255593231e-02  5.8777015571069069e-02  5.9213407575158625e-02  5.9006740119425645e-02  5.8758617406586472e-02  5.8648177294614204e-02  5.8478919386475349e-02  5.8935686217711683e-02  5.9834454498449596e-02  5.9895969547074407e-02  5.9984261279912257e-02  6.0059256178147377e-02  4.3999674149019549e-02  4.3445856949974757e-02  4.3615655994967070e-02  4.5185487622620583e-02  4.4852743967162510e-02  4.4812583752335697e-02  4.4230446772396112e-02  3.3011524225500778e-02  3.3992935575487424e-02  3.4414231646865807e-02  4.2205645049076083e-02  4.1911451519481231e-02  4.1717222690325906e-02  4.2378487812663936e-02  5.7653320171492085e-02  5.7822596014961619e-02  5.7434620459419730e-02  5.7021483630139730e-02  5.7250536880567152e-02  5.7623246396425389e-02  5.7998940658157236e-02  5.8180268215537984e-02  5.7815151498697523e-02  5.8026759018934601e-02  5.7749466410133038e-02  5.8248169694104457e-02  5.8520143803474547e-02  5.8355897840400975e-02  5.8642064472153838e-02  5.9433740974826697e-02  5.9533415501107294e-02  5.9671551832417000e-02  5.9278195520233098e-02  5.9122073308741641e-02  5.9005307994069500e-02  5.4394614682801844e-02  5.3637189052382121e-02  5.4465833948818224e-02  5.4616916990314922e-02  5.3769139653352907e-02  5.5921325001641368e-02  6.0578729522684116e-02  6.0905024037536712e-02  6.0923109365497323e-02  6.0171570389701591e-02  6.0558539433152099e-02  2.9652204199268346e-02  3.0298737496887114e-02  3.0565900864632772e-02  3.1226642103849976e-02  3.1726386090641517e-02  3.2004810247716370e-02  3.1565268789359877e-02  3.1338568787204583e-02  3.0451097491293860e-02  3.0444070391904918e-02  3.0291240066300028e-02  2.8126978616571569e-02  2.8012408888945656e-02  2.8580726155945098e-02  2.8384548644991150e-02  2.7824426339161604e-02  2.8230045056455086e-02  3.0210037378401514e-02  3.0473728026501633e-02  3.0520914097443109e-02  2.9319871800670215e-02  2.9803895112132193e-02  2.9309416950398647e-02  4.4922302245414457e-02  4.6451198451328120e-02  4.6650000325962761e-02  2.2305286416352682e-04  1.4032847861666919e-04  0.0000000000000000e+00  5.9860612879304567e-02  5.9735902065417956e-02  5.9954967475463271e-02  6.0057970519681515e-02  6.0226873100212200e-02  6.0220369336929411e-02  6.0172746583963682e-02  6.0245544172184515e-02  6.0221600142804727e-02  6.0244318966446081e-02  5.9801175592728642e-02  5.9971303590113892e-02  5.9969718184184242e-02  6.0087185191654485e-02  5.9926737835108872e-02  6.0124686145929945e-02  5.9771728268236082e-02  5.9807896148642903e-02  5.9568103653711707e-02  5.9688438437255444e-02  5.9903423454396934e-02  5.7426280937823843e-02  5.7700271349636387e-02  5.7682466010978081e-02  5.6775022800589561e-02  5.6693787233292998e-02  5.7057510913615279e-02  5.9715140287228574e-02  5.9243650434837695e-02  5.9475200770664538e-02  5.9426396389921921e-02  5.9593543456413045e-02  5.9443609606315159e-02  5.1013849129633713e-02  4.9966032820867479e-02  4.9287674417166236e-02  5.1338503475333169e-02  3.0715634628450221e-02  3.1549460320172765e-02  2.9857630532223126e-02  5.0185375291508752e-02  5.0520934050868389e-02  5.0487929799838342e-02  4.9754427835074909e-02  5.0057557015033137e-02  5.0232884947104692e-02  4.7844643487393382e-02  4.7459809511723752e-02  4.8229933073410697e-02  4.8563032460095107e-02  4.8950179415067130e-02  4.7828892972896053e-02  4.7031091986607793e-02  4.8134498774353017e-02  4.8335277340588831e-02  4.7680770564936630e-02  4.7889854740180871e-02  5.4687117522888296e-02  5.6009863428100368e-02  5.5142757764955190e-02  5.6233634952426351e-02  5.3614258833725045e-02  5.3419538493883541e-02  5.3409896078593908e-02  5.3196155479338501e-02  4.7202322586567813e-02  4.3657006999262379e-02  4.2534444317530791e-02  4.3026972142237940e-02  4.3216534191233405e-02  4.6645153338135743e-02  5.0680829913142114e-02  5.0714616804660786e-02  5.0822934586462643e-02  4.9272832988858865e-02  4.9261397193058096e-02  4.9629865473661605e-02  4.9637114511696223e-02  4.9263430104972319e-02  4.9990094131073963e-02  4.9965310701605564e-02  4.8862687873575839e-02  4.4224381904781389e-02  4.4784174246627527e-02  4.4036909331094352e-02  4.5080566002327682e-02  4.4928700757979750e-02  4.4805969479372376e-02  4.4709342174126365e-02  4.4908120384657961e-02  4.4736658896943976e-02  4.4634892908134764e-02  4.4227324933571566e-02  4.1119888635478698e-02  4.1497102151646613e-02  3.3780877908897819e-02  3.4471401140719005e-02  3.4639269457309108e-02  3.5331554589118186e-02  3.5570769583240201e-02  3.1903549203271181e-02  3.1412422032911586e-02  3.1141788574204413e-02  3.5377312253862238e-02  3.7377073875422460e-02  3.6122540378086460e-02  3.6667835030473557e-02  3.5912139581122354e-02  3.5401793179802771e-02  4.1376488075284795e-02  4.1796557050035321e-02  4.1072039654453052e-02  4.0193966009071956e-02  4.0671413570110629e-02  4.2059727706408548e-02  4.2148377808610124e-02  4.2508015260283825e-02  4.2752946256163236e-02  4.4554704411019053e-02  4.4175078140816282e-02  4.3998720913087319e-02  5.7427505232272053e-02  5.7083862045551902e-02  5.6766314369354566e-02  5.6394733821157089e-02  5.6807363421454274e-02  5.8338485064399419e-02  5.8515231450875602e-02  5.8172381489511926e-02  5.8025649265544654e-02  5.9714656452557954e-02  5.9734203905920602e-02  5.9581071190331222e-02  5.9857418938899981e-02  5.8825758800494100e-02  5.9162851048601924e-02  5.9028471607372679e-02  5.8872330303857710e-02  5.7408574671556981e-02  5.7137841896135730e-02  5.7084025544692225e-02  5.9786465827183263e-02  5.9313708471408905e-02  5.9043249744510092e-02  5.9140058571925821e-02  5.9182725203471051e-02  5.9460889943572230e-02  5.8751515610416166e-02  5.8441439815636521e-02  5.8594400374449053e-02  4.7056580268290120e-02  4.1885930859380277e-02  4.6298084915300554e-02  5.5521435721183190e-02  5.5059831899237285e-02  5.5903886748528163e-02  5.5261793682342353e-02  5.5214608519577560e-02  5.4509120534494387e-02  5.3772668580803672e-02  5.8517851801235428e-02  5.9359573307122347e-02  5.8620660983829086e-02  5.7588342272358761e-02  5.7800884135921847e-02  5.6963688571078960e-02  5.7106182683484483e-02  5.6446661793654443e-02  5.7156894636875080e-02  5.6578209585199879e-02  5.4484950674327619e-02  5.6140408370668554e-02  5.6933404969742626e-02  5.7953549184948938e-02  5.8591019494891330e-02  5.7831272013821280e-02  5.5801685590917541e-02  5.8811425307808932e-02  5.7959818073020357e-02  5.8360007942556212e-02  6.0175320016782705e-02  6.0054143080927255e-02  5.9645625670137550e-02  5.9604236490244114e-02  2.8811615690940165e-02  2.9305036960158043e-02  2.8616901084825508e-02  2.8086446323245761e-02  2.9359128397186171e-02  3.4693318285893671e-02  3.3806180456114741e-02  3.4813739503905740e-02  3.1395582247348786e-02  3.1026666609394613e-02  3.0267565455939404e-02  3.0234071754794135e-02  3.0383447270795953e-02  3.0395125564997016e-02  3.0622961302153733e-02  3.0770294125249273e-02  3.0671847556053511e-02  3.0681536203559533e-02  3.0761233135144360e-02  2.6962129072113501e-02  2.7269189007110541e-02  2.7160854184465878e-02  2.7677862024739427e-02  2.7742139955410680e-02  2.8365928829428150e-02  2.9895526090263469e-02  2.7570430727119621e-02  2.9156147029905759e-02  2.9761640505645434e-02  3.0575149013814695e-02  3.0509796348389798e-02  3.0436702744257672e-02  3.0161019267528386e-02  3.0413533417362040e-02  2.8708692280885850e-02  2.8956446800691781e-02  2.9278369093023317e-02  2.8778956700605561e-02  2.9768038294662843e-02  2.9655452905044549e-02  2.9934931747626480e-02  3.0575261408936117e-02  3.0693327718722088e-02  3.0219152999297592e-02  2.9495108272673237e-02  3.5675441507125503e-02  3.5749430535210569e-02  3.6498788112814103e-02  3.6492705424518927e-02  3.3886963229058938e-02  3.4327967277787176e-02  3.4479379330156601e-02  3.3905144500629647e-02  2.7041116650927607e-02  2.8523961291509095e-02  2.7912080802666300e-02  2.6280117906437295e-02  2.7497626832365778e-02  2.6367380300663032e-02  2.5682183363838745e-02  2.5243329490389703e-02  2.6755837738248280e-02  2.7415256075134425e-02  5.2576264454706978e-02  5.3573563368282243e-02  5.4162544894557019e-02  5.1882825757686206e-02  5.0921236750280832e-02  3.3208771705045360e-02  3.1760779184483286e-02  3.3380352591361191e-02  3.7185281946333110e-02  3.7587867290723553e-02  3.8390580251555693e-02  3.7268976773019345e-02  3.8036319090806965e-02  3.7230966535871879e-02  4.9365651810970218e-02  5.1700269081101681e-02  5.0137892544410902e-02  4.7634008284927448e-02  4.8547417786626745e-02  5.0683077459212147e-02  4.0058920901821227e-04  1.0087535784651380e-03  9.5776956886847037e-04  6.3840772771280724e-04  5.4368271868442120e-04  7.2726692297521676e-03  7.1987468708970409e-03  5.7002162931085940e-03  3.2429650901778989e-02  3.3179468569926401e-02  3.4043818462008789e-02  3.9297106522881049e-02  3.8455087268114960e-02  3.9786748131801192e-02  3.8969092299675587e-02  4.3492936834502824e-02  4.2368656884615059e-02  4.2976644545170667e-02  5.7138016744841175e-02  5.6851658605582098e-02  5.6837432905246864e-02  3.0959989032875529e-02  3.1642613473668889e-02  3.2263747537035016e-02  2.8215558835595324e-02  2.9082602462253852e-02  2.7591909246855246e-02  2.6046195657912483e-02  2.7031322817205390e-02  5.0982693187260564e-02  4.8894905754115266e-02  5.0013859876923902e-02  4.7136578912406198e-02  3.4308102142020534e-02  3.3637811157374659e-02  3.4318475010460030e-02  3.4859999443452125e-02  3.4435345266645968e-02  3.4976865665579587e-02  3.5310865613829796e-02  3.5718620378981623e-02  3.5658958976546112e-02  3.6545316296395840e-02  3.6235872940316174e-02  3.6677002916067181e-02  3.6381311503435612e-02  4.5160228360188751e-02  4.5358756074222184e-02  4.6539680856598445e-02  4.1703095938161322e-02  4.1059573026901532e-02  4.2162720230379834e-02  4.2799786128151232e-02  4.0865571655253022e-02  3.9246699340525659e-02  3.7277205194791295e-02  4.6905963314121488e-02  4.5917589854591004e-02  3.9065782974188855e-02  4.2321602428763372e-02  4.4340390522252138e-02  4.8212433986676892e-02  5.0557237655339357e-02  5.0079382109234016e-02  4.9226192609224270e-02  4.9550611135358108e-02  4.6697871651841222e-02  2.6528653401197005e-04  1.8280292157701189e-04  2.6094570914760029e-04  6.9016235147711935e-04  8.6620461193382542e-04  1.0278975134663665e-04  4.0558401597137264e-03  2.6255290901891354e-03  2.7002148521161340e-03  5.9888775136674753e-02  5.9986693519027454e-02  6.0090079475753601e-02  6.0035331602165072e-02  6.0096187299436082e-02  6.0237052919423627e-02  6.0214431485444628e-02  6.0120819428777686e-02  6.0179195900497445e-02  6.0186114303064600e-02  6.0137754233516735e-02  6.0096747994543800e-02  5.7664619435240087e-02  5.7961067758453257e-02  5.7905264802521374e-02  5.7576520895922877e-02  5.7909731518402466e-02  5.8112280565729979e-02  5.7799938654870792e-02  5.7970170412905551e-02  5.7635957113004344e-02  5.7770843136343661e-02  5.6402663012667054e-02  5.7463041348771220e-02  5.7398523895097614e-02  5.7792536221757271e-02  5.7343616358088323e-02  5.6997829533873154e-02  5.9701043907119902e-02  5.9480910395034357e-02  4.5079233290830849e-02  4.4376997894999409e-02  4.5576202217909895e-02  4.5423238512407475e-02  4.5048821308728206e-02  4.7740041092890650e-02  4.8664943642959507e-02  4.8597414558631181e-02  4.7245077820192834e-02  4.6620411674300304e-02  4.7276348900890428e-02  3.9234310195844599e-02  3.8411448220177731e-02  3.8303116477205211e-02  5.2971291881877436e-02  4.0780021338763343e-02  4.0758826056038727e-02  4.1695667779895057e-02  5.1901868583504665e-02  5.4666765104738321e-02  5.3830779359171403e-02  5.3974942852669662e-02  5.3039254897765578e-02  4.7343501845852488e-02  4.8315101644316613e-02  4.7635260078215780e-02  4.7853082261573636e-02  4.8205002891105311e-02  4.6824923681390594e-02  4.7197962677862262e-02  4.1261481878270972e-02  4.2301655953512957e-02  4.1571778316184763e-02  4.3271522415669818e-02  4.2965267644392388e-02  4.2629368294607506e-02  4.5356616630508467e-02  4.6260200860512003e-02  4.5848237299438502e-02  4.5772630221210357e-02  4.5041362915808632e-02  4.4698039717672625e-02  4.5352133179355367e-02  4.3329801290273466e-02  4.3849012694545580e-02  4.2755852589627413e-02  4.1629622345827247e-02  4.2156169431765284e-02  4.1036375923708394e-02  4.4606467410284192e-02  4.5024244475705577e-02  4.4367395007028347e-02  4.2667628855976240e-02  4.3855589530700692e-02  2.1764476767273281e-02  1.9934564069035991e-02  2.0421879690553226e-02  3.3146584992763142e-02  3.3683119794412339e-02  3.4665515472528149e-02  3.3354388696053533e-02  1.8010932522715305e-02  1.6588012674479055e-02  1.8410663381813651e-02  1.6291036820240225e-02  1.7840113304318585e-02  1.9595118118745970e-02  3.7173948027631930e-02  3.8414979451460995e-02  3.7092537646986140e-02  3.5945753674542925e-02  3.7289540341966097e-02  3.3368775442410667e-02  3.3164031124475343e-02  3.1923843088810001e-02  3.5828194064740186e-02  3.4559238718944799e-02  2.0906808793132812e-02  1.9050837441053233e-02  2.0302995447668826e-02  1.9802040173868881e-02  2.1682469540178356e-02  2.2794639848209383e-02  1.6345159054013708e-02  1.8053579672550314e-02  1.6686854674346014e-02  3.2993137504990042e-02  3.5437398599018642e-02  3.3288675218382892e-02  1.8094012780852167e-02  1.9588932473709644e-02  5.0071963264939491e-02  4.8175695501208669e-02  4.8912324744887527e-02  4.8525233695588754e-02  4.7452833110944920e-02  4.9867336268500990e-02  4.9483403653761276e-02  4.9280546860107424e-02  4.9723424688341192e-02  4.9213352997803196e-02  4.8585230561996942e-02  4.9391754463761053e-02  4.9280710133715849e-02  4.8970710870778263e-02  4.8877689243802994e-02  4.7438007931289945e-02  4.6693346460935994e-02  4.5919778034670268e-02  4.5013202250133007e-02  4.5467153473488064e-02  4.9530993161811379e-02  4.9775321436088572e-02  4.7389398409884834e-02  4.8773389643606058e-02  5.5563974666055629e-02  5.2987853915538848e-02  5.3179469374495761e-02  5.3017343270181171e-02  5.2633839372465907e-02  5.2607995640824114e-02  5.2768614259542421e-02  5.2801598747936995e-02  5.4420213648661966e-02  5.4403086525778972e-02  5.4761064514518121e-02  5.4778263447955104e-02  5.4441816206210594e-02  5.4111281554521842e-02  5.5509642029910586e-02  5.5482793540922434e-02  5.5877346843443809e-02  5.5118853551045677e-02  5.5843096960479038e-02  5.5456260552740735e-02  5.6239468846231377e-02  5.6282489899776585e-02  4.2048876231740515e-02  4.1552257665691483e-02  4.0804712999198446e-02  4.4499044945518498e-02  4.3866765565297179e-02  4.4911567124580200e-02  4.5278095839989117e-02  4.5850523470902863e-02  4.4288073134476511e-02  4.5777839909729549e-02  4.4825121293717150e-02  4.5249188362669501e-02  3.3069976128926065e-02  3.2102390623726960e-02  3.3299192558068957e-02  3.8774210649377520e-02  3.9303613001723664e-02  3.9920715753711901e-02  5.0955636532853295e-02  5.1143077863942552e-02  5.1071364653978518e-02  5.0852876651923493e-02  5.0883586080149083e-02  5.0795232463548695e-02  5.0600446716294177e-02  5.0747536915520398e-02  5.0576310239675758e-02  5.0895338391613830e-02  5.0927735105148822e-02  5.0682036894763749e-02  5.0670834064895039e-02  5.0864304402972280e-02  5.0448982794144059e-02  5.0353283882402837e-02  5.0550055240450156e-02  5.0850461088082881e-02  5.0759402108465565e-02  5.0949281782573685e-02  5.0851300761490581e-02  5.0728791124858938e-02  5.0685535883996186e-02  5.0528196884155850e-02  5.0624155022372719e-02  5.1371556788657888e-02  5.1053220222610954e-02  5.1165754486662551e-02  5.0823579181382625e-02  4.7082034316570986e-02  4.7248741907903131e-02  4.6553125392597788e-02  4.6941192277438815e-02  4.7579062204437667e-02  5.0782880459256455e-02  4.9635506780784960e-02  4.9299157802209809e-02  4.8144311857383888e-02  4.7711176257665640e-02  4.7383935994267296e-02  4.7972522580657588e-02  4.7472303745070471e-02  4.8051663543719501e-02  4.8487520840504977e-02  4.8894316167319506e-02  4.8940115332462758e-02  4.8433629959360673e-02  4.8844774551091472e-02  4.4376604964549600e-02  4.4341541122875000e-02  4.4105814456606593e-02  2.7070964216268749e-02  2.8320199907656524e-02  2.6470332400860042e-02  4.4456728400611031e-02  4.4357143103340088e-02  4.4787250967837693e-02  4.5165349756564860e-02  3.7250022084710246e-02  3.7568378166338713e-02  3.6441552218948951e-02  3.6952216977946414e-02  3.7966601337777628e-02  4.0960764199244347e-02  4.1634805407312854e-02  3.9785591223428826e-02  3.9322494064853671e-02  3.9801657580083236e-02  4.1355920653194496e-02  3.8937451264455483e-02  3.8285774483001758e-02  3.8620891779055658e-02  4.0425350121801845e-02  4.0858545254976175e-02  3.1392839633193760e-02  3.2226345178202817e-02  3.2090649820205708e-02  3.2895661590997674e-02  3.3256545522293554e-02  3.3616370858279745e-02  3.4139613671572581e-02  3.5053882223612935e-02  3.3984293481792729e-02  3.4956670059950255e-02  3.4783139359980307e-02  3.5737808087546043e-02  3.2616063169228118e-02  3.2307897311235463e-02  2.8946610842739466e-02  2.9719466200114945e-02  2.9843474101215520e-02  2.8845879741581079e-02  3.6256318117908568e-02  3.5043377231784072e-02  3.5279959728543142e-02  3.0023784789915492e-02  3.1568181009901032e-02  3.0679510015471294e-02  3.2314039799106999e-02  3.0809518609395275e-02  3.4012092840039400e-02  3.0596405765134435e-02  2.9423135902766781e-02  3.0261390960581690e-02  3.3435022393886356e-02  3.3166571396668246e-02  3.4685027682879246e-02  4.2158518951460486e-02  4.1744924160372961e-02  4.1508466573485066e-02  4.2159150871891246e-02  4.1827811305579596e-02  2.7823512715081673e-02  2.9599469887185034e-02  4.2506373835240627e-02  4.2715860478486523e-02  4.2249617416187525e-02  4.3680914844312982e-02  4.3707153450491351e-02  4.3457318450512525e-02  4.4384864404324466e-02  4.4294247745232940e-02  4.4227071260093155e-02  4.1713694009910901e-02  4.2842847671392820e-02  4.2570221184611227e-02  4.2910093342826180e-02  4.4112465088149096e-02  4.3686579427739840e-02  4.3776617483422826e-02  4.3689774346783866e-02  4.3896463437893218e-02  5.6332564925047186e-02  5.5985435603230084e-02  5.5835717743555280e-02  5.6093390813185068e-02  5.5555023683814958e-02  5.9350912694815725e-02  5.9419683651329963e-02  5.9610320810430294e-02  5.9793534414795735e-02  5.9371283627224956e-02  5.9433760461293665e-02  5.9310787235461904e-02  5.3831644904034366e-02  5.4119407338406068e-02  5.3528853074801042e-02  5.4400426221659547e-02  5.4669932925966308e-02  5.4929506376191470e-02  5.5202338449471380e-02  5.7013808954840095e-02  5.7249956721658599e-02  5.6805223033700766e-02  5.6546117663116263e-02  5.6328171833219393e-02  5.6050201135916584e-02  5.6764952046599981e-02  5.6592781480066107e-02  5.5820048845664258e-02  5.5283689386198681e-02  5.5528346992887632e-02  5.2917500385506584e-02  5.3241113689475116e-02  5.3545852022496412e-02  5.7417360667143841e-02  5.7623777979788030e-02  5.8725404883269994e-02  4.8225700177432593e-02  4.7833178453928885e-02  4.7823023051814129e-02  4.8184181486657415e-02  5.6976084525817761e-02  5.6720393879828829e-02  5.7045803370272624e-02  5.6817973753812402e-02  5.6613961702252857e-02  5.7260667982883859e-02  5.7439642290894447e-02  5.5582958595188484e-02  5.5028411801571177e-02  5.4760282378161426e-02  5.4474343992619349e-02  5.4153655812073390e-02  5.6378698101832339e-02  5.6140809261947464e-02  5.5872426650990667e-02  5.5626583054082857e-02  5.8222439520388802e-02  5.8564952075120538e-02  5.8391663312317064e-02  5.8207172169730065e-02  5.8532396584929008e-02  5.8941516489527071e-02  5.8721309397197566e-02  5.8952079235339808e-02  5.8204779958351938e-02  5.8130351062850846e-02  5.8228375908905339e-02  5.8703877451625724e-02  5.9178910594037668e-02  5.8198106283330095e-02  5.8408230574099634e-02  5.8469612510711318e-02  5.8291138987977040e-02  5.9713521735814207e-02  5.9824662255191813e-02  5.9565065142171102e-02  5.8880131525314364e-02  5.8988599016675414e-02  5.8664530687367773e-02  4.3815923198162930e-02  3.812526355