<?xml version="1.0"?>
<VTKFile type="UnstructuredGrid"  version="0.1"  >
<UnstructuredGrid>
<Piece  NumberOfPoints="6340" NumberOfCells="12376">
<Points>
<DataArray  type="Float64"  NumberOfComponents="3"  format="ascii">-0.01938199996948242 0.02067999914288521 0  -0.02006999962031841 0.02133500017225742 0  -0.02029000036418438 0.02034999988973141 0  -0.02086300030350685 0.02109800092875957 0  -0.01961199939250946 0.01976099982857704 0  -0.01922399923205376 0.02155500091612339 0  -0.01972899958491325 0.02229099906980991 0  -0.01926200091838837 0.02310499921441078 0  -0.02021499909460545 0.02304100058972836 0  -0.01876600086688995 0.0222800001502037 0  -0.008698999881744385 0.01764599978923798 0  -0.009322999976575375 0.0185529999434948 0  -0.00965499971061945 0.01761499978601933 0  -0.01028500031679869 0.01856200024485588 0  -0.02598899975419044 0.07669399678707123 0  -0.02694899961352348 0.07717599719762802 0  -0.02708899974822998 0.07637999951839447 0  -0.02653600089251995 0.06996099650859833 0  -0.02714500017464161 0.0707399994134903 0  -0.02736400067806244 0.0698229968547821 0  -0.02809000015258789 0.07030999660491943 0  -0.01323700044304132 0.08820000290870667 0  -0.01419099979102612 0.08809400349855423 0  -0.01360899955034256 0.08733999729156494 0  -0.02040199935436249 0.08249100297689438 0  -0.01941799931228161 0.08260300010442734 0  -0.01998700015246868 0.08336800336837769 0  -0.01983599923551083 0.08172199875116348 0  -0.02198600023984909 0.02451900020241737 0  -0.02107499912381172 0.0246140006929636 0  -0.02149100042879581 0.02539999969303608 0  -0.02186300046741962 0.02619300037622452 0  -0.02241900004446507 0.02531499974429607 0  -0.0205719992518425 0.02549999952316284 0  -0.02015800029039383 0.02468499913811684 0  -0.01923299953341484 0.02474799938499928 0  -0.01965799927711487 0.02556000091135502 0  -0.02156399935483932 0.02371300011873245 0  -0.02256100066006184 0.02366999909281731 0  -0.02191999927163124 0.02247999981045723 0  -0.02140600048005581 0.02180900052189827 0  -0.0211350005120039 0.02288799919188023 0  -0.02060100063681602 0.02211900055408478 0  -0.01614299975335598 0.0219739992171526 0  -0.0166459996253252 0.0210960004478693 0  -0.01568599976599216 0.021076999604702 0  -0.01703299954533577 0.02208800055086613 0  -0.01794400066137314 0.02209199965000153 0  -0.01746100001037121 0.02297299914062023 0  0.04346299916505814 0.08205100148916245 0  0.04310299828648567 0.08115000277757645 0  0.04444799944758415 0.08141399919986725 0  0.04618899896740913 0.09356699883937836 0  0.04700500145554543 0.09393300116062164 0  0.045889001339674 0.09441599994897842 0  0.02793600037693977 0.1021860018372536 0  0.02809200063347816 0.1012990027666092 0  0.02903399989008904 0.1017109975218773 0  0.02692699991166592 0.1026230007410049 0  0.02707000076770782 0.1015470027923584 0  -0.006537999957799911 0.09729599952697754 0  -0.005557000171393156 0.09739799797534943 0  -0.006146000232547522 0.09816499799489975 0  -0.005162000190466642 0.09826599806547165 0  -0.01873300038278103 0.09734100103378296 0  -0.0191430002450943 0.09659100323915482 0  -0.01801900006830692 0.09680400043725967 0  -0.01973499916493893 0.09744399785995483 0  -0.01454299967736006 0.1038609966635704 0  -0.01475599966943264 0.1047400012612343 0  -0.01540500018745661 0.1039389967918396 0  -0.01078900042921305 0.09599000215530396 0  -0.009823000058531761 0.09610500186681747 0  -0.01041200011968613 0.09687100350856781 0  -0.01175499986857176 0.09586799889802933 0  -0.01116599980741739 0.09510300308465958 0  -0.01213200017809868 0.09498199820518494 0  -0.0144889997318387 0.09799300134181976 0  -0.01503599993884563 0.0987280011177063 0  -0.01549299992620945 0.09785299748182297 0  -0.01331700012087822 0.09650299698114395 0  -0.01430200040340424 0.09638199955224991 0  -0.01370000001043081 0.09562599658966064 0  0.01258900016546249 0.09360600262880325 0  0.01366200018674135 0.09358000010251999 0  0.01306100003421307 0.0943949967622757 0  0.007935999892652035 0.07850400358438492 0  0.008446999825537205 0.07763200253248215 0  0.009007999673485756 0.07847800105810165 0  -0.008440000005066395 0.01672999933362007 0  -0.007656000088900328 0.01689800061285496 0  -0.009267999790608883 0.01666299998760223 0  -0.01013199985027313 0.01659299992024899 0  -0.01358999963849783 0.01672999933362007 0  -0.01380100008100271 0.01783799938857555 0  -0.01439599972218275 0.01695599965751171 0  -0.01303299982100725 0.01761600002646446 0  -0.01303299982100725 0.01866500079631805 0  -0.01225300040096045 0.01775100082159042 0  -0.01252300012856722 0.02161500044167042 0  -0.0130019998177886 0.02066499926149845 0  -0.01211600005626678 0.02066699974238873 0  -0.01169599965214729 0.01976799964904785 0  -0.01115499995648861 0.02059699967503548 0  -0.0125959999859333 0.01967800036072731 0  -0.01341500040143728 0.02166599966585636 0  -0.01477999985218048 0.02093400061130524 0  -0.01521200034767389 0.02191199921071529 0  -0.01431000046432018 0.02178600057959557 0  -0.009775999933481216 0.0194959994405508 0  -0.01125600002706051 0.03069300018250942 0  -0.01175399962812662 0.02983199991285801 0  -0.01082099974155426 0.02974100038409233 0  -0.006109000183641911 0.02915400080382824 0  -0.006556999869644642 0.03013800084590912 0  -0.007056000176817179 0.02928699925541878 0  -0.008856999687850475 0.01950200088322163 0  -0.006498999893665314 0.0187740009278059 0  -0.007437000051140785 0.01867599971592426 0  -0.006711999885737896 0.0179239995777607 0  -0.006808000151067972 0.01707899942994118 0  -0.005869999993592501 0.01727999933063984 0  0.04819300025701523 0.08970300108194351 0  0.04905600100755692 0.08919200301170349 0  0.04883899912238121 0.09037899971008301 0  0.0477450005710125 0.09052000194787979 0  0.01598099991679192 0.0584620013833046 0  0.01703299954533577 0.05833199992775917 0  0.01657800003886223 0.05924300104379654 0  0.02939100004732609 0.04299699887633324 0  0.02983699925243855 0.0419280007481575 0  0.03034700080752373 0.04264299944043159 0  0.03175900131464005 0.04718700051307678 0  0.03267399966716766 0.04648999869823456 0  0.03306299820542336 0.04725199937820435 0  0.03164999932050705 0.05074200034141541 0  0.03067299909889698 0.05081500113010406 0  0.03118300065398216 0.04985300078988075 0  0.03069300018250942 0.04901599884033203 0  0.03173699975013733 0.04889300093054771 0  0.0301670003682375 0.04996399953961372 0  0.02966500073671341 0.05091499909758568 0  0.02963100001215935 0.04915200173854828 0  0.02903600037097931 0.04837799817323685 0  0.02856500074267387 0.04928199946880341 0  0.02795800007879734 0.048505999147892 0  0.04552499949932098 0.09202700108289719 0  0.04441199824213982 0.09205599874258041 0  0.0450269989669323 0.09125500172376633 0  0.04393700137734413 0.09125299751758575 0  0.006936999969184399 0.02334799990057945 0  0.007699000183492899 0.02381799928843975 0  0.006965999957174063 0.02444100007414818 0  0.007792999967932701 0.02480299957096577 0  0.02749600075185299 0.04941099882125854 0  0.02339500002563 0.05158999934792519 0  0.02293699979782104 0.05249899998307228 0  0.02233299985527992 0.05171199887990952 0  0.02399400062859058 0.05237999930977821 0  0.03019900061190128 0.05177300050854683 0  0.01812399923801422 0.03470199927687645 0  0.01722599938511848 0.03455699980258942 0  0.01762700080871582 0.0336499996483326 0  0.01268799975514412 0.04002400115132332 0  0.01174100022763014 0.04001099988818169 0  0.01219000015407801 0.0391089990735054 0  0.01124200038611889 0.03909699991345406 0  0.01079399976879358 0.03999799862504005 0  0.01074299961328506 0.03818099945783615 0  0.01169100031256676 0.03819499909877777 0  0.01224000006914139 0.04092700034379959 0  -0.02795499935746193 0.07119700312614441 0  -0.02684799954295158 0.0715859979391098 0  -0.02783099934458733 0.07200799882411957 0  -0.02617700025439262 0.07088000327348709 0  -0.02577799931168556 0.07173400372266769 0  -0.0247419998049736 0.07188300043344498 0  -0.0252119991928339 0.07263699918985367 0  -0.02417300082743168 0.07114499807357788 0  -0.02372599951922894 0.07201699912548065 0  -0.02423500083386898 0.07276800274848938 0  -0.02819499932229519 0.06939200311899185 0  -0.01957100071012974 0.08423800021409988 0  -0.02055400051176548 0.08412899821996689 0  -0.01920400001108646 0.09329999983310699 0  -0.02016700059175491 0.09323400259017944 0  -0.01958299987018108 0.09246300160884857 0  -0.02054199948906898 0.09239999949932098 0  -0.01995700038969517 0.09162399917840958 0  -0.01819599978625774 0.09598200023174286 0  -0.01726300083100796 0.09607400000095367 0  -0.01697500050067902 0.09691599756479263 0  -0.01456199958920479 0.08723600208759308 0  -0.01183400023728609 0.08097399771213531 0  -0.01085400022566319 0.08108700066804886 0  -0.01142700016498566 0.08184999972581863 0  -0.01104400027543306 0.08271899819374084 0  -0.01046200003474951 0.08195800334215164 0  -0.01565200090408325 0.07884900271892548 0  -0.01609599962830544 0.07796099781990051 0  -0.01510799955576658 0.0780780017375946 0  -0.0141200004145503 0.07819399982690811 0  -0.01456100028008223 0.07730600237846375 0  -0.01885100081562996 0.08183600008487701 0  -0.01829399913549423 0.08106099814176559 0  -0.01928200013935566 0.08094500005245209 0  -0.02027199976146221 0.08083099871873856 0  -0.02477899938821793 0.07352399826049805 0  -0.02534000016748905 0.07594600319862366 0  -0.02494999952614307 0.07681699842214584 0  -0.02290100045502186 0.02429999969899654 0  -0.02322999946773052 0.02490999922156334 0  -0.02347199991345406 0.02552499994635582 0  -0.02373299933969975 0.02618799917399883 0  -0.02276100032031536 0.02614700049161911 0  -0.01972300000488758 0.02388999983668327 0  -0.01878900080919266 0.02394100092351437 0  -0.02066100016236305 0.02380800060927868 0  -0.02223099954426289 0.02305700071156025 0  -0.01760200038552284 0.01825400069355965 0  -0.01722799986600876 0.01901699975132942 0  -0.01831999979913235 0.01864000037312508 0  -0.01686500012874603 0.017858000472188 0  -0.01832799986004829 0.02308199927210808 0  -0.016558000
[...]
<PointData  Scalars="pressure"> 
<DataArray  type="Float64"  Name="pressure"  format="ascii">9.6461918332458624e-02  9.6221630918699702e-02  9.6400998033727509e-02  9.6146519081204584e-02  9.6591732158481811e-02  9.6298779588262065e-02  9.6033079893662471e-02  9.5850929123440828e-02  9.5724418486351423e-02  9.6170150471785315e-02  9.6104743508698770e-02  9.6077923678420163e-02  9.6305910423973740e-02  9.6299801317504347e-02  6.6209624888710530e-02  6.6087953735879917e-02  6.6552439992036319e-02  7.0454865082200252e-02  7.0079594276966611e-02  7.0527036662224846e-02  7.0248248445487924e-02  4.5356423916210649e-02  4.6741641091691224e-02  4.6649415733590535e-02  5.9366534823899114e-02  5.8553753352663551e-02  5.8186621629166463e-02  5.9722986596638175e-02  9.4854171233939300e-02  9.4997370043850948e-02  9.4593946983641000e-02  9.4173081990845786e-02  9.4437888644918366e-02  9.4718296707681990e-02  9.5129714910752824e-02  9.5259716157788915e-02  9.4856976560207376e-02  9.5245467860332583e-02  9.5042058496310380e-02  9.5566507752710889e-02  9.5860634696560157e-02  9.5606381741601798e-02  9.5931384811829473e-02  9.6427579256595938e-02  9.6613722710378144e-02  9.6614719574535532e-02  9.6377155111186066e-02  9.6312139560042226e-02  9.6102176988163104e-02  2.9051646993814934e-02  2.9059709781158856e-02  2.8975131686636402e-02  2.5341416916821562e-02  2.4966253079894328e-02  2.5416999504963754e-02  4.2709527844502000e-02  4.2626236881187288e-02  4.1878297619707669e-02  4.3367065486969503e-02  4.3394892841711392e-02  3.4173288969563849e-02  3.3812338917845700e-02  3.3608995909457449e-02  3.3307036437491590e-02  4.2330523425430290e-02  4.3274507074818419e-02  4.2373293710400467e-02  4.2767948067458261e-02  3.5746112880432848e-02  3.5594567234436367e-02  3.5969478904489635e-02  3.7468465363097690e-02  3.6668351402638508e-02  3.6561525540439815e-02  3.8284292626570272e-02  3.8354338827694033e-02  3.9218697682620679e-02  3.8905453903928695e-02  3.8787658241366325e-02  3.9734763765863643e-02  3.9065602284689756e-02  3.9955108870085881e-02  4.0070631720692168e-02  3.2457406188115094e-02  3.3260885761183287e-02  3.4808994049358701e-02  1.3829191720733762e-03  1.4413478072523439e-03  5.5235300913207205e-04  9.6208785424115636e-02  9.5975568704376304e-02  9.6375809284664618e-02  9.6482161348691545e-02  9.6887426205777338e-02  9.6863209639959993e-02  9.6943223433827455e-02  9.6782804488277696e-02  9.6734750616424142e-02  9.6682116816273242e-02  9.6167530123880504e-02  9.6455971457622761e-02  9.6302068685279726e-02  9.6392832716990756e-02  9.6106006547104453e-02  9.6563225970971861e-02  9.6308051119965862e-02  9.6605437731061006e-02  9.6421085505537643e-02  9.6383708722924843e-02  9.6011032784089304e-02  9.3415830416791593e-02  9.3712826672652183e-02  9.3555134249040564e-02  9.1504899771055193e-02  9.1566322171124925e-02  9.2052759686700597e-02  9.5733244232517847e-02  9.4899654342337658e-02  9.5382967028418086e-02  9.5312156570709836e-02  9.5621389956874747e-02  9.5053324375935860e-02  2.5108174314675810e-02  2.4926470245496934e-02  2.4878565055879931e-02  2.5118318399400267e-02  3.6560442672271931e-02  3.7705419410865082e-02  3.5324259850655577e-02  6.4140537472354403e-02  6.4598671102588767e-02  6.4227189597627465e-02  6.1466714979014736e-02  6.1753230498763856e-02  6.1215270694731566e-02  5.8573142713653409e-02  5.8511181825254777e-02  5.9365365519881794e-02  6.0113825403952964e-02  6.0078729344904741e-02  5.9282011541965968e-02  5.8312423207816114e-02  6.0015791954515299e-02  6.0714576823523117e-02  5.9806554549436369e-02  6.0511511433014725e-02  2.5738547841606042e-02  2.6264636549981461e-02  2.6023308639100007e-02  2.6555153803599591e-02  8.5313739465270072e-02  8.4716250898400097e-02  8.4703392401273364e-02  8.4115549428686209e-02  5.9484123272895720e-02  5.4965013252610717e-02  5.3289614291092843e-02  5.4207840567140571e-02  5.4098517841195223e-02  5.7515918266171209e-02  7.2872423509918863e-02  7.3458220418977552e-02  7.3720475625559945e-02  7.0945349966031579e-02  7.1358266611851767e-02  7.2271517419420145e-02  7.2732952410164836e-02  7.1818886634429965e-02  7.4060187362364305e-02  7.3536419809417081e-02  6.9947430220997101e-02  6.9806271435573164e-02  6.9575471009398468e-02  6.9446050485471686e-02  6.9843895223939176e-02  6.9302506818086806e-02  6.8886929323723103e-02  6.8572684142870641e-02  6.9120698751226492e-02  6.8431940144362532e-02  6.8195565336722580e-02  7.0908263799986812e-02  5.6951237137361513e-02  5.7763254774188616e-02  4.6619377538629596e-02  4.7412858852815626e-02  4.7783207119911977e-02  4.8568414338019436e-02  4.8957520082517851e-02  4.3265293542246244e-02  4.2497514737319088e-02  4.1556206607437987e-02  4.8046100815013919e-02  4.8756333119031867e-02  4.6540903922162161e-02  4.7386590761000005e-02  4.6113243687080828e-02  4.5341269403277609e-02  5.7145273039278952e-02  5.8286707119798914e-02  5.6613226641182748e-02  5.4723107679978150e-02  5.5895368736065196e-02  5.8830851223105857e-02  5.8990036332638829e-02  5.9997680064121373e-02  6.0844700849615310e-02  6.7925268633525757e-02  6.6592342443642427e-02  6.5894267488005587e-02  9.4722332369083465e-02  9.4400193830224646e-02  9.4100636405375207e-02  9.3746881864628678e-02  9.4004885447808190e-02  9.5507055541363781e-02  9.5631358520495729e-02  9.5381784898819141e-02  9.5328581028916115e-02  9.6898669067447388e-02  9.6871998863483494e-02  9.6842285706113085e-02  9.6959022476440962e-02  9.5983696211734040e-02  9.6161945518880382e-02  9.5906551332098272e-02  9.5856179914016279e-02  9.3512135781880709e-02  9.3230202990508992e-02  9.3260364608561450e-02  9.5981517973381961e-02  9.5203488579819071e-02  9.4768816421307425e-02  9.5055006288792529e-02  9.4890229027355028e-02  9.5336133172922027e-02  9.4324735128667070e-02  9.3879478201504149e-02  9.4228906656676548e-02  2.4640643217800986e-02  2.4392987848012325e-02  2.4474382870674140e-02  2.6565175828989738e-02  2.6156604277787203e-02  2.6660978190555150e-02  3.0196666550417528e-02  3.0793842386334432e-02  3.0630448437018731e-02  2.9144440640342859e-02  2.6657769253945848e-02  2.7426916728586513e-02  2.7105524348144717e-02  2.6435541398402852e-02  2.6186690641337416e-02  2.5767689940943292e-02  2.7176506827496474e-02  2.6878581724572314e-02  2.7517447458384851e-02  2.7236209006503222e-02  2.5511356404857913e-02  2.5827638343226267e-02  2.6351627617572249e-02  2.6984001007296136e-02  2.7710701200079943e-02  2.7239214214767632e-02  2.5982657234617561e-02  4.4421785711658029e-02  4.4773669359015465e-02  4.5137330354526620e-02  4.4146865103013883e-02  4.3888337703105448e-02  4.4473921323453500e-02  4.3959008222090423e-02  3.5201506414025648e-02  3.5096505578158667e-02  3.5836111810877334e-02  3.5983122014302205e-02  3.4395470572516788e-02  3.3573540508143505e-02  3.3544839536988787e-02  3.3787757156840660e-02  3.3170596845596464e-02  4.1675705551748460e-02  3.7210912115946723e-02  3.7991675273190847e-02  3.7473806097904828e-02  3.6761495320604423e-02  3.7134075071259091e-02  3.6027781049085626e-02  3.6557091856544703e-02  3.6532510398294069e-02  3.5982790479170253e-02  3.6786114400644665e-02  3.7278373420624428e-02  3.6270889577962234e-02  3.9996530834335554e-02  4.0146258328314005e-02  4.1064084029912989e-02  4.0963275599275956e-02  3.7514530587783416e-02  3.5749425143825203e-02  3.5070877645522407e-02  3.7172278412282808e-02  3.7926588935853794e-02  3.7180169067928807e-02  3.7216953672285266e-02  3.6496474872364210e-02  3.7362135985658421e-02  3.8182534009685652e-02  3.7289618711702548e-02  3.9162764613425792e-02  3.7257133414504713e-02  3.6497224995940498e-02  3.8060434893501763e-02  3.7717191051531505e-02  3.9568442678100994e-02  3.9851416463132082e-02  3.8114674900356464e-02  3.4591339239543495e-02  3.4125205020452527e-02  3.4848024507833968e-02  3.4480030449791713e-02  3.2773147721308321e-02  3.2786358210353028e-02  3.3054212326122726e-02  3.3115165659681672e-02  3.8310677355284942e-02  3.8509569304240737e-02  3.8918546066021929e-02  3.7807528485642318e-02  3.8097878285062545e-02  3.7787986292751478e-02  3.7655148179746925e-02  3.7569765959518768e-02  3.7880686905618827e-02  3.7822673203981007e-02  4.5292306711461325e-02  4.5636346885668866e-02  4.5311616575485915e-02  4.5527257504809293e-02  4.5214209759695340e-02  4.0998422462765083e-02  4.0260613358049029e-02  4.0380029239151689e-02  3.7945438761482576e-02  3.7522475422488197e-02  3.8498337504873047e-02  3.5256254253168834e-02  3.6194248644723113e-02  3.5630435045485818e-02  3.2438301850072050e-02  3.4589216586167731e-02  3.3560744051494507e-02  3.1250159245589285e-02  3.2483491040427068e-02  3.4773554643419538e-02  1.9679903086375523e-03  3.2300226097971389e-03  2.7183437861576405e-03  2.7037928619940768e-03  1.6209996546982346e-03  8.0640698767122654e-03  7.6611034549563042e-03  6.4634065700097630e-03  3.8904002386316985e-02  4.0069610066023845e-02  4.1206673616883759e-02  4.7702187992253259e-02  4.6688107660155534e-02  4.8669253094980713e-02  4.7694186732087800e-02  5.5420223839886817e-02  5.3679285734319543e-02  5.4763872773187020e-02  9.3100037481990597e-02  9.2906946043129685e-02  9.2744233298736239e-02  3.6550188606285512e-02  3.7648848827145434e-02  3.8780624636902614e-02  3.2545026842930203e-02  3.3984105275682769e-02  3.1814297663296312e-02  2.9633141853880211e-02  3.1168437686079981e-02  3.3492079239535906e-02  3.1655386033575095e-02  3.2538553170182900e-02  3.0432340264158215e-02  3.5036779577619165e-02  3.4460358422950900e-02  3.5720421964445394e-02  3.5480415806825982e-02  3.4399638435730899e-02  3.4764856703028715e-02  3.5827440246683967e-02  3.6884720639741783e-02  3.6008755393234684e-02  3.4200883780963268e-02  3.4830884664116338e-02  3.5432134513154717e-02  3.3866585899407449e-02  3.6885489028309397e-02  3.5466146339415076e-02  3.7535585273859820e-02  3.8005973550427126e-02  3.6931970477939988e-02  3.7522536220177573e-02  2.7508608587864532e-02  2.6198707275783460e-02  2.4876266329130189e-02  2.3570170592643460e-02  3.1344723500373692e-02  3.0069230096199630e-02  2.5071518262833922e-02  2.7692935451930162e-02  3.0785871755413939e-02  3.5642680625563347e-02  3.9813355207686779e-02  4.0880452172217877e-02  3.9025843091302123e-02  3.7825231206394888e-02  3.6267457688646740e-02  1.3346213516810326e-04  2.0611393028842351e-04  7.4494992815829497e-04  5.4461727861425738e-04  1.4421698511070773e-03  9.1015524583000149e-04  2.0339031372073081e-03  9.2093441921816538e-04  1.2093114155963640e-03  9.6767090143985712e-02  9.6986869091616468e-02  9.6980933108446993e-02  9.6942342240224341e-02  9.6676834345886836e-02  9.6797282502290499e-02  9.6727884584221255e-02  9.6403131943090095e-02  9.6502833554974854e-02  9.6570861302505195e-02  9.6596748084383968e-02  9.6423135472936600e-02  9.3794543389759261e-02  9.4011308216023715e-02  9.4068622032725493e-02  9.3789250528771587e-02  9.3660622036386157e-02  9.3742499789967196e-02  9.3358499080679558e-02  9.3396418880992038e-02  9.2969816097598190e-02  9.2968557166918819e-02  9.0997224809464927e-02  9.2252504504499691e-02  9.2142417601510318e-02  9.2710514358682689e-02  9.2053827356149823e-02  9.1571866160045270e-02  9.5771064165955516e-02  9.5382247589538088e-02  7.1082180854201690e-02  7.1242696769360264e-02  7.2141063091963817e-02  7.1752295496033389e-02  7.2004945503999926e-02  7.5624882910929156e-02  7.7805109973948142e-02  7.7432155645804288e-02  7.7012223562489712e-02  7.5854372425765024e-02  7.7453189548602711e-02  4.1670859150015963e-02  4.0371515152877076e-02  4.0980921823863301e-02  2.9288725490731013e-02  4.4768520649144813e-02  4.5332085905345619e-02  4.6252315518592699e-02  2.5224695729500833e-02  2.6183767250202598e-02  2.5787575296033653e-02  2.5834705289787426e-02  2.5579767223597515e-02  5.6062785623410799e-02  5.6979594501503986e-02  5.5969354858089654e-02  5.7111454632048114e-02  5.7506325175089842e-02  5.6084382467542354e-02  5.6950748363475676e-02  4.7669576998058821e-02  4.9226693475790992e-02  4.7758526520048056e-02  5.0678813591094996e-02  5.0686853310676308e-02  4.9255828719889781e-02  5.5502942945471340e-02  5.6683569035260881e-02  5.5801217649360482e-02  5.4928669427541238e-02  5.3625011980796500e-02  5.3596807202051462e-02  5.4793828569823899e-02  5.2632013779163447e-02  5.3096944301473444e-02  5.1510701511865993e-02  4.9778415147402985e-02  5.0246723704755664e-02  4.8514683358646407e-02  5.1528579859471187e-02  5.1725781174174493e-02  5.0554360893281691e-02  4.7775323716285373e-02  4.9658863795832592e-02  2.3981430853752785e-02  2.1751701734260553e-02  2.2589442384951145e-02  3.9158546140974478e-02  4.0217500229177555e-02  4.1374229738627019e-02  4.0104913703288891e-02  1.9559784675444516e-02  1.7939339562204337e-02  1.9969369974070429e-02  1.7632104115053712e-02  1.9363301225522288e-02  2.1337104458447560e-02  4.6512119274945612e-02  4.8692715760604757e-02  4.6232729830482738e-02  4.4435095852036144e-02  4.6912706057225431e-02  4.0167878801925128e-02  3.9813672721871557e-02  3.8049151740850065e-02  4.4089507716492581e-02  4.2046144724348755e-02  2.3310816720720353e-02  2.1060570059762036e-02  2.2429720334311593e-02  2.2095804604288127e-02  2.4347614599834269e-02  2.5642102412608229e-02  1.7762802958926013e-02  1.9705688584558886e-02  1.8229062639467525e-02  2.5549228247736224e-02  2.6749563302212474e-02  2.5385933454123741e-02  1.9566822469199177e-02  2.1041735165139516e-02  6.3634161248356788e-02  5.8524124249257126e-02  5.9198749023499600e-02  5.8454114747747199e-02  5.7733700995499349e-02  6.0382088957307664e-02  5.9712197399221192e-02  5.9893256567041780e-02  6.1932597836782011e-02  6.0835467614890351e-02  5.9328160861254656e-02  6.2721102910595808e-02  6.2146062081315429e-02  6.2116554417445291e-02  6.1487824668623181e-02  6.0219228722043189e-02  5.9061504161704359e-02  5.9112998810890924e-02  5.7661426571811919e-02  5.8617083145759086e-02  6.3255698761556886e-02  6.3228105610186658e-02  5.9074219268490519e-02  6.0818795303842016e-02  2.6322374859551557e-02  8.3452132595881273e-02  8.4115719298219788e-02  8.3519233686816949e-02  8.2202158811336509e-02  8.2212919236471657e-02  8.2841929751899732e-02  8.2918084530316807e-02  8.7383847361021921e-02  8.7294772863769465e-02  8.8075118006415362e-02  8.8165321219837819e-02  8.7485244851551736e-02  8.6669680366047414e-02  8.9412397747609729e-02  8.9315730273537383e-02  8.9967018735041981e-02  8.8720601322776566e-02  8.9870218203531416e-02  8.9234280841150482e-02  9.0486888534876520e-02  9.0589205794020605e-02  5.2382171822454152e-02  5.1480229050070145e-02  5.0561814910499832e-02  5.5582785833265189e-02  5.4853403273839668e-02  5.6389114547408567e-02  5.7212010918353803e-02  5.7792316201670343e-02  5.5697952069715215e-02  5.6379727725278259e-02  5.5087846745948271e-02  5.5957020014246392e-02  3.5811037690679413e-02  3.4815476370181619e-02  3.6647505402584477e-02  4.4838171312667284e-02  4.6092171369550600e-02  4.6695235812243455e-02  7.4221181528899921e-02  7.5024313510792140e-02  7.4319671035644644e-02  7.3387113996990883e-02  7.3660749379582460e-02  7.2817066476859427e-02  7.3683771495331146e-02  7.4011287526951519e-02  7.3145790921025994e-02  6.7860828032363929e-02  6.7340838715741883e-02  6.7466658202866236e-02  6.7986969234722791e-02  6.8366783804564485e-02  6.8189011701372204e-02  6.8555734455159292e-02  6.8860787657552297e-02  6.9958721106439595e-02  7.0206929628554279e-02  7.0675361346198173e-02  7.1128607059620499e-02  7.0764343190588191e-02  7.0082961600372751e-02  6.9872477902019128e-02  7.0603736573105022e-02  7.8983616482916505e-02  7.8031169695035332e-02  7.8578936043234848e-02  7.7535676277921753e-02  6.3932431059375336e-02  6.3954286317558007e-02  6.2531919528120580e-02  6.3991669486170494e-02  6.5371139354991739e-02  7.4554391593633626e-02  7.1839322812525114e-02  7.0562342238602901e-02  6.6625481103265174e-02  6.5281234591585482e-02  6.5662734198288844e-02  6.6996618590602811e-02  6.5490257346080175e-02  6.6789619927889149e-02  6.8196078438076291e-02  6.9591852967523668e-02  6.9250066590644171e-02  6.8478397309750166e-02  7.0329018332846951e-02  6.6418289810223019e-02  6.6371200665465188e-02  6.5474952068902262e-02  3.4301757719936363e-02  3.5703062008666304e-02  3.2889982740673750e-02  6.7494768432143581e-02  6.7247363437399357e-02  6.8936192502425622e-02  7.0134731479908244e-02  5.1299901209822335e-02  5.1607992801500649e-02  5.0267564944694906e-02  5.0938574645958128e-02  5.2202865093757475e-02  5.5896242350980223e-02  5.7522997749215557e-02  5.3846465118261133e-02  5.3376918756480735e-02  5.4343687674957883e-02  5.7280525758758902e-02  5.3490991776812401e-02  5.2600776685573669e-02  5.3043638621531268e-02  5.5630062998243857e-02  5.6541475191556514e-02  4.3759973515396788e-02  4.4436059052003929e-02  4.5013385396623834e-02  4.5105835243385628e-02  4.5675227731747127e-02  4.6236396120027889e-02  4.6843514325743546e-02  4.8085260021468401e-02  4.7374102300570868e-02  4.8627294026158271e-02  4.8138910321879717e-02  4.9337405542669632e-02  4.5484940273942898e-02  4.4035787398840495e-02  3.7869548942976658e-02  3.9363222971185344e-02  3.8720912612804678e-02  3.7226635118590090e-02  4.6739803234297397e-02  4.4881104209941104e-02  4.5432394095745204e-02  3.7781027763439737e-02  3.9957544993292689e-02  3.8701744771768853e-02  4.0950392135555569e-02  3.8901581059130448e-02  4.3625168644716342e-02  4.0767328704549785e-02  3.9848933995295148e-02  4.1177422057651084e-02  4.5188106452070664e-02  4.2001355245492214e-02  4.4346437730315123e-02  5.8937583633310947e-02  5.7721658382668684e-02  5.7733247856046041e-02  5.9344104404933748e-02  5.8812121003569626e-02  3.4289527170836567e-02  3.7104110926246894e-02  6.0426582905930976e-02  6.0802223921880144e-02  5.9894585593120039e-02  6.3981432549361852e-02  6.3964701719475311e-02  6.3106142465945592e-02  6.6993077482008653e-02  6.6372807624562546e-02  6.6248069430040565e-02  5.7738947551588024e-02  6.1083092168581266e-02  6.0157867020699418e-02  6.1208740785028887e-02  6.6832549194871596e-02  6.7099809292649623e-02  6.5645832637367438e-02  6.5001631010175281e-02  6.5464646757347672e-02  9.3548974194842913e-02  9.3362972944944680e-02  9.3061618719980463e-02  9.3257342240672447e-02  9.2965400478669580e-02  9.6637407118974478e-02  9.6745487873925534e-02  9.6754406312037550e-02  9.6855428017418616e-02  9.6546740876157708e-02  9.6660190157096496e-02  9.6196923500472334e-02  9.0509947331489232e-02  9.0695818809037820e-02  9.0034023545591063e-02  9.1129344020143777e-02  9.1545667599360156e-02  9.1938553012107377e-02  9.2089947382259521e-02  9.3626442604599208e-02  9.3772850237024113e-02  9.3322745014600111e-02  9.3143087104971725e-02  9.2832713239126743e-02  9.2636975991226500e-02  9.3462594701774357e-02  9.3029289742834934e-02  9.2309905683367610e-02  9.1746114724841399e-02  9.2098207367644250e-02  8.9336491863541673e-02  8.9855660493217859e-02  9.0350110254905094e-02  9.4423364612382682e-02  9.4563609723296568e-02  9.5577645339605236e-02  8.0965217359357106e-02  7.9916894208033870e-02  8.0090856499186222e-02  8.1060371527703443e-02  9.3214426962172955e-02  9.2934520288948372e-02  9.3363267759927218e-02  9.3104493298404381e-02  9.2935822508492916e-02  9.3626530955485704e-02  9.3732626284133078e-02  9.1980765599174716e-02  9.1382991912046421e-02  9.0998762038767694e-02  9.0580689276432036e-02  9.0290406515655217e-02  9.2660809368086627e-02  9.2457016577592616e-02  9.2222438798732861e-02  9.1902844057676999e-02  9.4902249423160098e-02  9.5275676983778118e-02  9.4960415416033173e-02  9.4644717872608364e-02  9.4983590159769343e-02  9.4899244793585802e-02  9.4721620970587062e-02  9.5089949821856701e-02  9.4311789972905541e-02  9.4358880189477468e-02  9.4201601908226518e-02  9.4871391576967168e-02  9.5282238029407482e-02  9.4010471658129396e-02  9.4122401331122749e-02  9.4365599437476383e-02  9.3809116070913287e-02  9.5748162274835596e-02  9.5864611846763245e-02  9.5609044804991120e-02  9.4426772151917832e-02  9.4529604729758507e-02  9.4036371705942298e-02  2.4492851120328393e-02  2.452074950