<?xml version="1.0"?>
<VTKFile type="UnstructuredGrid"  version="0.1"  >
<UnstructuredGrid>
<Piece  NumberOfPoints="6340" NumberOfCells="12376">
<Points>
<DataArray  type="Float64"  NumberOfComponents="3"  format="ascii">-0.01941299997270107 0.0206729993224144 0  -0.02018200047314167 0.02135699987411499 0  -0.02039000019431114 0.02036000043153763 0  -0.02101900056004524 0.02116099931299686 0  -0.01962899975478649 0.01975099928677082 0  -0.01927400007843971 0.02155300043523312 0  -0.01984399929642677 0.02231699973344803 0  -0.0193680003285408 0.02312500029802322 0  -0.02038099989295006 0.023114999756217 0  -0.01880200020968914 0.02227500081062317 0  -0.00774300005286932 0.01816200092434883 0  -0.008434000425040722 0.01899600028991699 0  -0.008759000338613987 0.01805499941110611 0  -0.009459000080823898 0.01892800070345402 0  -0.02632799930870533 0.07718800008296967 0  -0.02727200090885162 0.07768300175666809 0  -0.02745800092816353 0.07689400017261505 0  -0.02684699930250645 0.07054399698972702 0  -0.02750100009143353 0.07131800055503845 0  -0.02768599987030029 0.070421002805233 0  -0.02844999916851521 0.07090999931097031 0  -0.01262000016868114 0.08805199712514877 0  -0.01352600008249283 0.08799599856138229 0  -0.01296800002455711 0.08727099746465683 0  -0.02011200040578842 0.08284500241279602 0  -0.01909999921917915 0.08293300122022629 0  -0.01958600059151649 0.08368699997663498 0  -0.01962899975478649 0.08208499848842621 0  -0.02225299924612045 0.02474699914455414 0  -0.02132800035178661 0.0247809998691082 0  -0.02175300009548664 0.02562100067734718 0  -0.02213400043547153 0.0264660008251667 0  -0.02269699983298779 0.0255999993532896 0  -0.02081900089979172 0.02565900050103664 0  -0.02036299929022789 0.02479800023138523 0  -0.01937999948859215 0.02480700053274632 0  -0.01985399983823299 0.02566500008106232 0  -0.02182199992239475 0.02388600073754787 0  -0.02283599972724915 0.02391299977898598 0  -0.02218000032007694 0.02263999916613102 0  -0.02161600068211555 0.02192199975252151 0  -0.02135499939322472 0.02301199920475483 0  -0.02076699957251549 0.02219199948012829 0  -0.01592900045216084 0.0219500008970499 0  -0.01644499972462654 0.02106600068509579 0  -0.01539400033652782 0.02107200026512146 0  -0.01690700091421604 0.02204200066626072 0  -0.01789800077676773 0.02206699922680855 0  -0.01740599982440472 0.02294499985873699 0  0.03837300091981888 0.08052799850702286 0  0.0382240004837513 0.07963600009679794 0  0.03937700018286705 0.07984799891710281 0  0.03920000046491623 0.09169500321149826 0  0.03987700119614601 0.09202300012111664 0  0.03888700157403946 0.09252499788999557 0  0.02294199913740158 0.1006070002913475 0  0.02313500083982944 0.09974399954080582 0  0.02391700074076653 0.1001129969954491 0  0.02204599976539612 0.101061999797821 0  0.02224100008606911 0.1000159978866577 0  -0.00749799981713295 0.09585700184106827 0  -0.006587000098079443 0.0959940031170845 0  -0.007199999876320362 0.09669899940490723 0  -0.006275000050663948 0.09684400260448456 0  -0.01820500008761883 0.0966159999370575 0  -0.01853100024163723 0.09596700221300125 0  -0.01751299947500229 0.09608999639749527 0  -0.0191309992223978 0.09676799923181534 0  -0.01526500005275011 0.1020679995417595 0  -0.01555799972265959 0.1028660014271736 0  -0.01601400040090084 0.1021850034594536 0  -0.01105699967592955 0.09482400119304657 0  -0.01023900043219328 0.09486600011587143 0  -0.01084099989384413 0.09558399766683578 0  -0.01188100036233664 0.09479100257158279 0  -0.01127899996936321 0.09407400339841843 0  -0.01210200041532516 0.09404099732637405 0  -0.0145030003041029 0.09686599671840668 0  -0.01506500039249659 0.09755399823188782 0  -0.01536700036376715 0.09682100266218185 0  -0.01331000030040741 0.09546799957752228 0  -0.01416200026869774 0.09543800354003906 0  -0.01355199981480837 0.09472800046205521 0  0.01031799986958504 0.09279400110244751 0  0.01124299969524145 0.09273499995470047 0  0.01067200023680925 0.09354200214147568 0  0.007317000068724155 0.0783350020647049 0  0.007867000065743923 0.07747200131416321 0  0.00824000034481287 0.07827600091695786 0  -0.007439999841153622 0.01728999987244606 0  -0.006616000086069107 0.01751900091767311 0  -0.008318999782204628 0.01715900003910065 0  -0.009236999787390232 0.01702200062572956 0  -0.01295000035315752 0.01689000055193901 0  -0.01322000008076429 0.01796700060367584 0  -0.0138349998742342 0.01706999912858009 0  -0.01238000020384789 0.01779600046575069 0  -0.01241500023752451 0.01881800033152103 0  -0.01154599990695715 0.01798699982464314 0  -0.01196900010108948 0.02174199931323528 0  -0.01245400030165911 0.02078500017523766 0  -0.01149499975144863 0.02084000036120415 0  -0.01101399958133698 0.01999500021338463 0  -0.01045900024473667 0.02084499970078468 0  -0.01197800040245056 0.01983899995684624 0  -0.01294100005179644 0.02174600027501583 0  -0.01439800020307302 0.0209560003131628 0  -0.01490799989551306 0.02191199921071529 0  -0.01391800027340651 0.02181800082325935 0  -0.008945999667048454 0.01987800002098083 0  -0.0109230000525713 0.0307219997048378 0  -0.01143299974501133 0.02985000051558018 0  -0.01041499990969896 0.02980899997055531 0  -0.00533499987795949 0.02957499958574772 0  -0.005841000005602837 0.0304969996213913 0  -0.006347000133246183 0.02962899953126907 0  -0.007966999895870686 0.01995700038969517 0  -0.005446999799460173 0.01944099925458431 0  -0.006436000112444162 0.0192670002579689 0  -0.005648999940603971 0.01859599910676479 0  -0.00572599982842803 0.01776600070297718 0  -0.004739999771118164 0.01803999952971935 0  0.04125500097870827 0.08790700137615204 0  0.04211099818348885 0.08739700168371201 0  0.04171499982476234 0.08853200078010559 0  0.04073899984359741 0.08869899809360504 0  0.0161959994584322 0.0589429996907711 0  0.01721199974417686 0.05883999913930893 0  0.01674200035631657 0.05973099917173386 0  0.02963400073349476 0.0439630001783371 0  0.03010400012135506 0.04291800037026405 0  0.0305589996278286 0.04363299906253815 0  0.03163199871778488 0.0480629988014698 0  0.03252299875020981 0.04738099873065948 0  0.03282999992370605 0.04809999838471413 0  0.03128699958324432 0.05142899975180626 0  0.03038500063121319 0.05153900012373924 0  0.03092099912464619 0.05061300098896027 0  0.03052500076591969 0.04982500150799751 0  0.03149599954485893 0.04968800023198128 0  0.02997599914669991 0.05073799937963486 0  0.02944899909198284 0.05165399983525276 0  0.02953599952161312 0.04997599869966507 0  0.02903000079095364 0.04923199862241745 0  0.02853900007903576 0.05011000111699104 0  0.02801400050520897 0.04935000091791153 0  0.03873100131750107 0.09022600203752518 0  0.03777299821376801 0.09029000252485275 0  0.03835399821400642 0.08949600160121918 0  0.03741699829697609 0.08952800184488297 0  0.008232000283896923 0.02470500022172928 0  0.008976000361144543 0.02516200020909309 0  0.008233999833464622 0.02576999925076962 0  0.009046000428497791 0.02612200006842613 0  0.02753200009465218 0.05022900179028511 0  0.0235580001026392 0.05231799930334091 0  0.02308399975299835 0.05320499837398529 0  0.02254300005733967 0.05241800099611282 0  0.0240899994969368 0.05310399830341339 0  0.02988100051879883 0.05244899913668633 0  0.01895200088620186 0.03560400009155273 0  0.01807999983429909 0.03546800091862679 0  0.01849699951708317 0.03457999974489212 0  0.01349900010973215 0.04084299877285957 0  0.01256600022315979 0.04085100069642067 0  0.01303199958056211 0.039962999522686 0  0.01209800038486719 0.03997299820184708 0  0.01163300033658743 0.04086000099778175 0  0.01162900030612946 0.03909299895167351 0  0.01256300043314695 0.0390859991312027 0  0.01303500030189753 0.04173099994659424 0  -0.0283380001783371 0.0717800036072731 0  -0.02722400054335594 0.07214599847793579 0  -0.02823599986732006 0.07257500290870667 0  -0.02652099914848804 0.07144100219011307 0  -0.02614100091159344 0.07227499783039093 0  -0.02509099990129471 0.07240600138902664 0  -0.02559100091457367 0.07315400242805481 0  -0.02449100092053413 0.07167199999094009 0  -0.02406200021505356 0.07252199947834015 0  -0.02460099942982197 0.07326799631118774 0  -0.02851299941539764 0.07000900059938431 0  -0.01906600035727024 0.08451800048351288 0  -0.02007099986076355 0.08443800359964371 0  -0.01841400004923344 0.09299600124359131 0  -0.01932200044393539 0.09297999739646912 0  -0.01874700002372265 0.09224800020456314 0  -0.0196519996970892 0.0922359973192215 0  -0.0190849993377924 0.09149300307035446 0  -0.01761999912559986 0.09536399692296982 0  -0.01677099987864494 0.09539099782705307 0  -0.01658700034022331 0.09611400216817856 0  -0.01389199960976839 0.08720699697732925 0  -0.01159300003200769 0.08119200170040131 0  -0.01058399956673384 0.08128099888563156 0  -0.01108200009912252 0.08202899992465973 0  -0.01061199977993965 0.08285000175237656 0  -0.01009800005704165 0.08210799843072891 0  -0.01571300067007542 0.07916899770498276 0  -0.01624500006437302 0.07828900218009949 0  -0.01523400004953146 0.0783889964222908 0  -0.0142230000346899 0.0784899964928627 0  -0.01474200002849102 0.07761099934577942 0  -0.01861600019037724 0.08217699825763702 0  -0.01814300008118153 0.08140499889850616 0  -0.01916100084781647 0.08130700141191483 0  -0.02017899975180626 0.08121199905872345 0  -0.02517000027000904 0.07402200251817703 0  -0.02571500092744827 0.07643300294876099 0  -0.02527200058102608 0.0772939994931221 0  -0.02318399958312511 0.02458699978888035 0  -0.02352000027894974 0.02524000033736229 0  -0.0237479992210865 0.02588300034403801 0  -0.02399400062859058 0.02657599933445454 0  -0.02304100058972836 0.02648000046610832 0  -0.01987900026142597 0.02395600080490112 0  -0.01888700015842915 0.02395400032401085 0  -0.0208749994635582 0.0239269994199276 0  -0.0224980004131794 0.02325800061225891 0  -0.0173799991607666 0.01822599954903126 0  -0.01700000092387199 0.01899199932813644 0  -0.01817999966442585 0.01858999952673912 0  -0.01655800081789494 0.01785299926996231 0  -0.01835300028324127 0.02307399921119213 0  -0.0164190009236335
[...]
<PointData  Scalars="pressure"> 
<DataArray  type="Float64"  Name="pressure"  format="ascii">8.5924841143104926e-03  8.4757629311456931e-03  8.5322260957094304e-03  8.4581387720385169e-03  8.6404371915436359e-03  8.5606416362830964e-03  8.4677087389400142e-03  8.5079002704642470e-03  8.3921810183512184e-03  8.5952490080189320e-03  1.0304769073460472e-02  1.0175559529093964e-02  1.0180690469246894e-02  1.0044737542268367e-02  1.4603212297430314e-02  1.4591592560159194e-02  1.4483116157621059e-02  1.2981279846016325e-02  1.3124744019543944e-02  1.2882633565199010e-02  1.2916240769521234e-02  1.8153945047409779e-02  1.8251239027697579e-02  1.7841478338917131e-02  1.6741217043820832e-02  1.6819144205630968e-02  1.7014933170254862e-02  1.6555394126474172e-02  8.2928631617245653e-03  8.3199008692362367e-03  8.3159990478193987e-03  8.3400819309689643e-03  8.3109763471605896e-03  8.4005814864300220e-03  8.4108363347571852e-03  8.5080668826856484e-03  8.4867353419426569e-03  8.3068447125362183e-03  8.4206712357394360e-03  8.4328033951907577e-03  8.4200933959683762e-03  8.3342978796286347e-03  8.3912149330513004e-03  8.9864295879422025e-03  8.9587737824898990e-03  9.1034412827143522e-03  8.8492717685793032e-03  8.7190281916849494e-03  8.7500287351632532e-03  2.0878978886185950e-02  1.9294014040152112e-02  2.0798266680326926e-02  3.8110848910341236e-02  3.8729460553466953e-02  3.9246006354424226e-02  4.3546905125204496e-02  4.2382334606508115e-02  4.3170864543623511e-02  4.3926206290817775e-02  4.2429601183931506e-02  2.3678657134702550e-02  2.3987543720177355e-02  2.4428006002252936e-02  2.4782425025326033e-02  2.2139980836172267e-02  2.1761577154890452e-02  2.2033919913363249e-02  2.1843006762109887e-02  2.5621703188196579e-02  2.5709573565649187e-02  2.5248497792105529e-02  2.2319124825303162e-02  2.2450623112864283e-02  2.2876177326584587e-02  2.2192582076204705e-02  2.1776294003619676e-02  2.1677895432612788e-02  2.3023713044514622e-02  2.3295950213919663e-02  2.2831000193574393e-02  2.2418350217006295e-02  2.2266140798320538e-02  2.1941000972622984e-02  2.2830105564890145e-02  2.3033806488566649e-02  2.4188923447506179e-02  3.2960164012783427e-03  2.8285135809217876e-03  3.7512744131078524e-03  1.0315345552630268e-02  1.0411961919180257e-02  1.0218748313275811e-02  1.0099840605134105e-02  9.6002805265653010e-03  9.5662095092970932e-03  9.4733773055211343e-03  9.6862337242851759e-03  9.6418371678815215e-03  9.8070895054127999e-03  9.5371288087159924e-03  9.5268552659315067e-03  9.6531676402625902e-03  9.7708911356806996e-03  9.7904908416316314e-03  9.6482655758962955e-03  9.4061837597005267e-03  9.2483683154002440e-03  9.1285021353437919e-03  9.2688818425933697e-03  1.0052362428027779e-02  9.9090957466369256e-03  9.7469977918702363e-03  9.8473141791545100e-03  1.0351655646419381e-02  1.0351471032189575e-02  1.0249136045673832e-02  1.0172425955524780e-02  1.0476088367509354e-02  1.0394677648010772e-02  1.0495053597027796e-02  1.0489355765160472e-02  1.0548269104399152e-02  3.3267524095860361e-02  3.3125550779259529e-02  3.4311195204750775e-02  3.4152903844074045e-02  1.0736734196724579e-02  1.1063025743127963e-02  1.0779580827326614e-02  1.5765273603823151e-02  1.5699531875195773e-02  1.5850907705225514e-02  1.6463372713831647e-02  1.6523637238990280e-02  1.6642848881727648e-02  1.6686947329534768e-02  1.6588839314320449e-02  1.6608096965593313e-02  1.6513872422100236e-02  1.6589121299191240e-02  1.6499854763928685e-02  1.6448176040214164e-02  1.6398378685947314e-02  1.6281254670525384e-02  1.6237627172333614e-02  1.6110618148076305e-02  3.5709195157695564e-02  3.5423220254143434e-02  3.4381881797207040e-02  3.3996630615838248e-02  1.1264870442463264e-02  1.1316912325059280e-02  1.1245663396576400e-02  1.1298372159763270e-02  1.6027494039546775e-02  1.4594172637442362e-02  1.4300086156297239e-02  1.4170193574316148e-02  1.4732218576099625e-02  1.6530063444294293e-02  1.3131265541005691e-02  1.2979181273893681e-02  1.2924961788952714e-02  1.2451311720453537e-02  1.2228321304705140e-02  1.2365658886355508e-02  1.2152411923332607e-02  1.2009663741043525e-02  1.2066466436560657e-02  1.2266973139289469e-02  1.2287012817733936e-02  1.3155725752583940e-02  1.3259968780951942e-02  1.3189629682040085e-02  1.3213391812248291e-02  1.3415010887388598e-02  1.3537697650296741e-02  1.3659024000628111e-02  1.3434541361175240e-02  1.3665761829240109e-02  1.3788565542285539e-02  1.2717256766331377e-02  1.7275672724921025e-02  1.7203096851031802e-02  2.0412308398934494e-02  2.0263437013545910e-02  2.0037497495765721e-02  1.9906582717900911e-02  1.9685558200261317e-02  2.1660492184206574e-02  2.1817775288187603e-02  2.2217209137913987e-02  1.7953160550363369e-02  1.4622700276799343e-02  1.4108277470726665e-02  1.4767770688767900e-02  1.4968268157163768e-02  1.4284247491213663e-02  1.5415552367908401e-02  1.5239632325053484e-02  1.5022347805522598e-02  1.4710731146962006e-02  1.4589512510024150e-02  1.6609482034982741e-02  1.6387872770999502e-02  1.6359954031391122e-02  1.6281762250617966e-02  1.3905378736991172e-02  1.4468609604079499e-02  1.4728765640286374e-02  8.4367141160486894e-03  8.5038260094206369e-03  8.5354807526595751e-03  8.5990674932423204e-03  8.3596338058328813e-03  8.4471792907138445e-03  8.5549369928500166e-03  8.3429767160302093e-03  8.4199707943839394e-03  8.9881679989698253e-03  9.0015265922523888e-03  8.8811538458830781e-03  9.1033849746033728e-03  8.6315180742036618e-03  8.8832585895881819e-03  8.9240819859113009e-03  8.7963549921439323e-03  9.8144889527739809e-03  9.9997081518318799e-03  9.9117472874770129e-03  9.6692427416374994e-03  9.7106863156807763e-03  9.7498048053044802e-03  9.6209225008568426e-03  9.8412098166121911e-03  9.8146520956424906e-03  9.8047514033823141e-03  9.8747207246314868e-03  9.7451597208283690e-03  3.6454321598211228e-02  3.7176779006494340e-02  3.7694750333514680e-02  3.0416523773588902e-02  3.1964609332165383e-02  3.1519624166343713e-02  2.3337833517763393e-02  2.3036458742954489e-02  2.2036362568865611e-02  1.9346247748339509e-02  4.0078538136480206e-02  4.0422831206777851e-02  3.9190612356011664e-02  3.8725256235986501e-02  3.9816614523652975e-02  3.9554794516325327e-02  3.3570068791792307e-02  3.2547680868799722e-02  3.2093868870522166e-02  3.1062842002708740e-02  3.7030340715205390e-02  3.8184759262762193e-02  3.7562776966158791e-02  3.7663819838105843e-02  3.7010948714189175e-02  3.6132536324144239e-02  3.6744456604085478e-02  4.4647940974672312e-02  4.4954497216933335e-02  4.3534759935998306e-02  4.1721116324622914e-02  4.3061657250801320e-02  4.2735703749529078e-02  4.4280081310568778e-02  2.3219447991284441e-02  2.3629747982022789e-02  2.3037108825407958e-02  2.2594141333577369e-02  2.3189435954482099e-02  2.7041133869360849e-02  2.5894494356375551e-02  2.6590537815454486e-02  2.5180407841511834e-02  2.2272417384379802e-02  2.4431430755365323e-02  2.3972530905157143e-02  2.4383209325683983e-02  2.4824259488062939e-02  2.4739036867650634e-02  2.5210752255425035e-02  2.4973754511712430e-02  2.4738813009251938e-02  2.4964202814545436e-02  1.9070676942476078e-02  1.8479836334611147e-02  1.8401442178791395e-02  1.9751661885727714e-02  2.0254351047898439e-02  1.9772482259045591e-02  2.1811667421210407e-02  2.1877248577486054e-02  2.3436450829809982e-02  2.4003793572780686e-02  2.4267312860459744e-02  2.3772754021948658e-02  2.3998736455007868e-02  2.3715770697081216e-02  2.4206858367164040e-02  2.2719675481377526e-02  2.2569186696902489e-02  2.3079749962984387e-02  2.2066940595675301e-02  2.3409307741888992e-02  2.3601606699460084e-02  2.3218789593565367e-02  2.4242352096761705e-02  2.3093017782269173e-02  2.2559064241439091e-02  2.2906301475798408e-02  3.2464265487321023e-02  3.1610994983904857e-02  3.2105520989935854e-02  3.1206111850510802e-02  2.9234711476674148e-02  2.9057136079774906e-02  3.0076555429244187e-02  3.0200119973246592e-02  3.9535874879459615e-02  3.9317259111127767e-02  4.0378672264500315e-02  3.8683229891840538e-02  3.8703632526156030e-02  3.7145550670208465e-02  3.7882466836966298e-02  3.7146963126526406e-02  3.7882479496791840e-02  3.7130576556571621e-02  4.6314414503076787e-02  4.4959510194403696e-02  4.6027909741338566e-02  4.5267780274689903e-02  4.6553187758288782e-02  4.3883881980152972e-02  4.3108451601244616e-02  4.2527692117338714e-02  3.6118730197663360e-02  3.5114130780456339e-02  3.5735339481124534e-02  3.1672510733417501e-02  3.2134414688338393e-02  3.2615238612229883e-02  2.1012429014252015e-02  2.2374909733603492e-02  2.1936450236388971e-02  2.0603639894204454e-02  2.1558981950896332e-02  2.2940726608188841e-02  2.6021831459115338e-03  2.0445618538288066e-03  2.6799581347599147e-03  2.0600606835433286e-03  3.2277222070479575e-03  6.1615518683123399e-03  6.4888564731405869e-03  5.6926940424001510e-03  1.1421013231172669e-02  1.1358947396042676e-02  1.1732717944387398e-02  1.4319636583920339e-02  1.3885262873989484e-02  1.4269043751721073e-02  1.3831200069550440e-02  1.3499142361119831e-02  1.3194672229557319e-02  1.3093855908954316e-02  1.0077273229648173e-02  1.0182490328929573e-02  1.0249613521450058e-02  7.9474202881172906e-03  7.9461300668376769e-03  8.1877902062278615e-03  7.7418430798007545e-03  8.0902367612560450e-03  7.8142082045293930e-03  7.5008154515725824e-03  7.9038018649702953e-03  2.1449744555249641e-02  1.9789627237000663e-02  2.0580387681071607e-02  1.9334581974963887e-02  1.3694886929983590e-02  1.3469901759463204e-02  1.3792687850232958e-02  1.3884792116992398e-02  1.3555559927991147e-02  1.3692062999359857e-02  1.4040531220826973e-02  1.4413307255013157e-02  1.4159966161475069e-02  1.3821868920794407e-02  1.3987551117205548e-02  1.4438060519694349e-02  1.3355063623188015e-02  2.6408941360575672e-02  2.5173844097953983e-02  2.6613892362488640e-02  2.9424956264450304e-02  2.8164735721106764e-02  2.8383027655380332e-02  1.9019506812073341e-02  1.8727032183161657e-02  1.7860935765219483e-02  1.7598036747500989e-02  2.1208450836416967e-02  2.0248150301165925e-02  1.8493749610119983e-02  1.9666211451443715e-02  2.1716832843960893e-02  2.4438591624116525e-02  2.7476294184590314e-02  2.8691677658283725e-02  2.7127642615408475e-02  2.5930228316483138e-02  2.5401122697636887e-02  4.7047666096288708e-03  4.2702540428546897e-03  4.2713636513066824e-03  5.3003074041819385e-03  4.9629795508856211e-03  3.3421533715175394e-03  7.3008026393367766e-03  6.7222448216185046e-03  6.3772322076985077e-03  9.2275842970498539e-03  9.2174239058814000e-03  9.3395438592923999e-03  9.2914157489266541e-03  9.5175955799253684e-03  9.7241373397475399e-03  9.8535643613264050e-03  9.8946111154240533e-03  9.9230168863468290e-03  9.9340093472370453e-03  9.9736577581082571e-03  1.0057808632292612e-02  9.6465576168507303e-03  9.5971860575324308e-03  9.4886403573359902e-03  9.5417337455560892e-03  9.8148523626561471e-03  9.8098625830776442e-03  9.9240335685548131e-03  9.9296982323329938e-03  1.0035456254719546e-02  1.0048218487129650e-02  1.0440679883389627e-02  1.0492994159380167e-02  1.0436022803106310e-02  1.0394932709098324e-02  1.0380461099204954e-02  1.0483407181702504e-02  1.0292537927390561e-02  1.0284890242430119e-02  1.2798802885561709e-02  1.2704274674341889e-02  1.2462106523065369e-02  1.2552423402125420e-02  1.2406226596260093e-02  1.1455707724839285e-02  1.1611065401242002e-02  1.1552280526319812e-02  1.1168303944970745e-02  1.1022410233054097e-02  1.1082922942505038e-02  1.6295805251987514e-02  1.6094696173476069e-02  1.6028993689114906e-02  1.8100127708374519e-02  1.6472507694390699e-02  1.6448589637647400e-02  1.6651481401510258e-02  3.2085860641377473e-02  2.8499441056951982e-02  2.9016343638220862e-02  2.9894464196660600e-02  3.0607212278673381e-02  1.6911567569549115e-02  1.6984381460660704e-02  1.6979342136368123e-02  1.6896099995613013e-02  1.6881087941810067e-02  1.6826465389831295e-02  1.6803799788702965e-02  1.6203817903263494e-02  1.6414305767094021e-02  1.6390536090029471e-02  1.6561576957597014e-02  1.6429821510244060e-02  1.6563281207957400e-02  1.6469937993824450e-02  1.6591986652714687e-02  1.6626374154317995e-02  1.6745927622633515e-02  1.6716798153830578e-02  1.6614245106667248e-02  1.6636404070870494e-02  1.6055410624575325e-02  1.6288686250040332e-02  1.6048532638165424e-02  1.5765990823752581e-02  1.6029487102520053e-02  1.5747001239617277e-02  1.6800459359473933e-02  1.6858843604495397e-02  1.6820188254439049e-02  1.6704002686632215e-02  1.6847522431963021e-02  9.8591078225995950e-03  9.4783229469246610e-03  9.4682329032586103e-03  1.2299629132857225e-02  1.2263449243017685e-02  1.2669222434542673e-02  1.1808763632854952e-02  6.4005346709949847e-03  5.7371949205739688e-03  6.1383462564897420e-03  6.0367348542860397e-03  6.7107764579261570e-03  7.0161840945044303e-03  9.4525523290502102e-03  9.5998739159802483e-03  9.5547701845259160e-03  9.3031054425929578e-03  9.3662589759590555e-03  9.0669688365199244e-03  9.1750087385501049e-03  8.9777380826471485e-03  9.4023779113086813e-03  9.2414847898135248e-03  8.7696547432499078e-03  8.2862991286293923e-03  8.3822023381768945e-03  8.7151741923853464e-03  9.1514241385380994e-03  9.1870431784735612e-03  6.8180906236633178e-03  7.4456905629298777e-03  7.2665117723331521e-03  1.3524123183476150e-02  1.4087624362137730e-02  1.3766128738324647e-02  9.0603168431308521e-03  9.5243558210453966e-03  1.5923624200169000e-02  1.6749447391243628e-02  1.6764486471433443e-02  1.6829076044415820e-02  1.6749180170375969e-02  1.6728902108372266e-02  1.6797348419187362e-02  1.6680439228697316e-02  1.6375004422747922e-02  1.6490105380447526e-02  1.6679927076234041e-02  1.6087222830814509e-02  1.6247675179499328e-02  1.6142524491109381e-02  1.6287989170511247e-02  1.5895612373875267e-02  1.5771193588511586e-02  1.4450796775107390e-02  1.4201260319702345e-02  1.4073883363063078e-02  1.5921872561194986e-02  1.6014147952543616e-02  1.6350309186532873e-02  1.6408356852434781e-02  3.2970318923232364e-02  1.1336710308399174e-02  1.1370634066942362e-02  1.1422925787934149e-02  1.1526981190122073e-02  1.1441755023621231e-02  1.1479318229341284e-02  1.1398035522987404e-02  1.0940154426732549e-02  1.0922604233209121e-02  1.0876117242906217e-02  1.0895257134158103e-02  1.0959606076051284e-02  1.1004420374321769e-02  1.0763484145926899e-02  1.0742373441802098e-02  1.0694547542578797e-02  1.0809927589282373e-02  1.0669705151194357e-02  1.0722722659887940e-02  1.0619133915839993e-02  1.0650514751482647e-02  1.4423588663896730e-02  1.4536531093908463e-02  1.4077824086520328e-02  1.5517253260541368e-02  1.5140723453837841e-02  1.5392188318452710e-02  1.5260563585830032e-02  1.5600597691927141e-02  1.5014534770209254e-02  1.6426022231533204e-02  1.6263070040085086e-02  1.6209695963002927e-02  1.3212539422027846e-02  1.2842602720055368e-02  1.3188236400213941e-02  1.5078477692434995e-02  1.5095035866213528e-02  1.5427901072690972e-02  1.2821474061754955e-02  1.2716405572191149e-02  1.2865640872780474e-02  1.3019286617780280e-02  1.2943648171906415e-02  1.3160562525387578e-02  1.2882214468271907e-02  1.2840231311004015e-02  1.3028940041474452e-02  1.4742925949805964e-02  1.4912867545504069e-02  1.4812243870296379e-02  1.4636741583997734e-02  1.4567196825446313e-02  1.4527926639762958e-02  1.4379240325135389e-02  1.4333854467410034e-02  1.4038662628332612e-02  1.3934720016780356e-02  1.3860002018864535e-02  1.3702249648945616e-02  1.3767064728118030e-02  1.3958850250659315e-02  1.3994601406795842e-02  1.3789142773342228e-02  1.1563581216996532e-02  1.1637071228005568e-02  1.1500255367198765e-02  1.1560112047307190e-02  1.2683219227408622e-02  1.2975046746465008e-02  1.2722779061235819e-02  1.2399857000697519e-02  1.2651379918216868e-02  1.2706225819966045e-02  1.2576073450258830e-02  1.2668557335515484e-02  1.2879683737383362e-02  1.2923366958512480e-02  1.2124863210106786e-02  1.2360533111739097e-02  1.2381056779839326e-02  1.2611845296252970e-02  1.2571529332729484e-02  1.2519721512027925e-02  1.2753368152295819e-02  1.2329150423874537e-02  1.2059225224062952e-02  1.3983995116568677e-02  1.3800810104890902e-02  1.4035163072213020e-02  5.4103891018859249e-03  5.9166742451030596e-03  5.0956218840412480e-03  1.4035964687973797e-02  1.4155487710828515e-02  1.3509451319829634e-02  1.3113574673268971e-02  1.8631020129189279e-02  1.8369919494700144e-02  1.8673393830044460e-02  1.8878929157004808e-02  1.8563605474292082e-02  1.5581263492154950e-02  1.5769476753336484e-02  1.8374292615887234e-02  1.8383998618130663e-02  1.8204821439916228e-02  1.7070312614760941e-02  1.8254797968431352e-02  1.8324749371187013e-02  1.8474741614742281e-02  1.7536536078973822e-02  1.7479001646229890e-02  2.1452167300617664e-02  2.1336439883703741e-02  2.0987982237516772e-02  2.1051749817745751e-02  2.0876947703434356e-02  2.0650386850372481e-02  2.0466540849632384e-02  2.0080044751839277e-02  2.0170757094252846e-02  1.9782347301030383e-02  1.9805756565983549e-02  1.9452713615208495e-02  1.8580209196106392e-02  2.1446039971976256e-02  1.6753382613832662e-02  1.6954796563625665e-02  1.6272658941356682e-02  1.6051152227244094e-02  1.5579968676267625e-02  1.5192642737106896e-02  1.5823696502482217e-02  1.3000161019889045e-02  1.3489600237043708e-02  1.2586129711174187e-02  1.4333576958774373e-02  1.3875550589626928e-02  1.5457068544075307e-02  1.7157963992967453e-02  1.7589676803213914e-02  1.7740383342137966e-02  1.7697497438758439e-02  1.4017292064861232e-02  1.3522837596644591e-02  1.5876599293502588e-02  1.6084983767797725e-02  1.4869120588182041e-02  1.5054557997389244e-02  1.4704174087951299e-02  5.6463531642047746e-03  6.3989280094414146e-03  1.4865025213788199e-02  1.5160280256115554e-02  1.4537419522979819e-02  1.5093604810792128e-02  1.4909845946005092e-02  1.5169481076335870e-02  1.4170935222701048e-02  1.4296690530808006e-02  1.4435800856338971e-02  1.6620035865496360e-02  1.6094466163990351e-02  1.6149260089771179e-02  1.5893020009394344e-02  1.4393651809045553e-02  1.4162119756052645e-02  1.4801100586128872e-02  1.5052407722823576e-02  1.4885783110257771e-02  8.4182794182935880e-03  8.6856327648134855e-03  8.5300040536998682e-03  8.4589299778910845e-03  8.8399343997956140e-03  8.7193137615357331e-03  8.7658468214073353e-03  8.9382139364878391e-03  9.0697234743641643e-03  8.8239283044356451e-03  8.8045480662395509e-03  9.0185757178361976e-03  9.3498422982298615e-03  9.4151850080678896e-03  9.5342844487829419e-03  9.2251848619870937e-03  9.0394676499351706e-03  8.8618316800614973e-03  8.9243858067733321e-03  8.9725390253725980e-03  9.0682859293679668e-03  9.1391439856297364e-03  9.0499085083424781e-03  9.2322203186622764e-03  9.1457236237941358e-03  8.8857679976495699e-03  9.3242732091558950e-03  9.3392692817243425e-03  9.4543571089212367e-03  9.2536708798552844e-03  9.6406487527364478e-03  9.4696628548341481e-03  9.2926211904910613e-03  8.4948764821983942e-03  8.5820742244276660e-03  8.8538972772885111e-03  1.0665487698448214e-02  1.0711246558341853e-02  1.0629337497422696e-02  1.0581455746454502e-02  9.8205834443169729e-03  1.0026468133727106e-02  9.5224558378163120e-03  9.7246558166120614e-03  9.6249295345256711e-03  9.3373192975731815e-03  9.4384729086395176e-03  9.5463060419147816e-03  9.6647762421221556e-03  9.8805481995568427e-03  1.0097386121933345e-02  9.9905411131016378e-03  9.8415326351833990e-03  9.7427993349491968e-03  9.6430865570651392e-03  9.8646087883627609e-03  8.8925478607164397e-03  8.9220526806076672e-03  9.0075777677167401e-03  9.1116571671624458e-03  9.1277064209925075e-03  9.5476456411496165e-03  9.4926856692776548e-03  9.4223531077160978e-03  9.4634350230795375e-03  9.3488241178569520e-03  9.5777073275593733e-03  9.3715943834674249e-03  9.4927662019015126e-03  9.6938366966288665e-03  9.7054022869384991e-03  9.5870206912560124e-03  9.8299598973266497e-03  9.7995781536343307e-03  9.9240760966515275e-03  9.6863744291966862e-03  9.8823778123478360e-03  9.9743557144421589e-03  1.0017980382048628e-02  3.6154356848436812e-02  3.676232875