<?xml version="1.0"?>
<VTKFile type="UnstructuredGrid"  version="0.1"  >
<UnstructuredGrid>
<Piece  NumberOfPoints="6340" NumberOfCells="12376">
<Points>
<DataArray  type="Float64"  NumberOfComponents="3"  format="ascii">-0.01910299994051456 0.02064500004053116 0  -0.01968700066208839 0.02124300040304661 0  -0.01992999948561192 0.02027999982237816 0  -0.02037999965250492 0.02092999964952469 0  -0.0193450003862381 0.0197330005466938 0  -0.01892800070345402 0.02151099964976311 0  -0.01934099942445755 0.02219199948012829 0  -0.01889600045979023 0.02301999926567078 0  -0.01971700042486191 0.02285300008952618 0  -0.01848899945616722 0.02224300056695938 0  -0.008975000120699406 0.01765000075101852 0  -0.009577999822795391 0.01856300048530102 0  -0.00991200003772974 0.01762600056827068 0  -0.01052100025117397 0.01858000084757805 0  -0.02405999973416328 0.0703200027346611 0  -0.02495500072836876 0.07055599987506866 0  -0.02509200014173985 0.06980299949645996 0  -0.0242260005325079 0.06415600329637527 0  -0.02486299909651279 0.06472399830818176 0  -0.02499599941074848 0.06385699659585953 0  -0.02572000026702881 0.06413999944925308 0  -0.01206499990075827 0.08278000354766846 0  -0.01289399992674589 0.08254200220108032 0  -0.01232600025832653 0.08204399794340134 0  -0.01856300048530102 0.07671699672937393 0  -0.01763599924743176 0.07701399922370911 0  -0.01813199929893017 0.07756099849939346 0  -0.01807199977338314 0.07616200298070908 0  -0.02112000063061714 0.02399300038814545 0  -0.02036100067198277 0.02424499951303005 0  -0.02064899913966656 0.02489300072193146 0  -0.02089999988675117 0.02555599994957447 0  -0.02142100036144257 0.02464799955487251 0  -0.01988199912011623 0.0251499991863966 0  -0.01957600004971027 0.02442700043320656 0  -0.01877900026738644 0.02458800002932549 0  -0.01909900084137917 0.02531599998474121 0  -0.02082899957895279 0.02332800067961216 0  -0.02165599912405014 0.02310900017619133 0  -0.02120999991893768 0.02212999947369099 0  -0.02080699987709522 0.02154700085520744 0  -0.02051400020718575 0.02260600030422211 0  -0.0200980007648468 0.0219310000538826 0  -0.01611699908971786 0.02203099988400936 0  -0.01660799980163574 0.02115100063383579 0  -0.01571200042963028 0.02114200033247471 0  -0.01694300025701523 0.0221330001950264 0  -0.01775900088250637 0.02209600061178207 0  -0.01729300059378147 0.02298299968242645 0  0.03985200077295303 0.07617799937725067 0  0.03963100165128708 0.07529699802398682 0  0.0408409982919693 0.07536300271749496 0  0.04144300147891045 0.08642499893903732 0  0.04216299951076508 0.08664099872112274 0  0.04108799993991852 0.08709000051021576 0  0.0237830001860857 0.09430299699306488 0  0.02401000075042248 0.09361899644136429 0  0.02484199963510036 0.09386199712753296 0  0.02281099930405617 0.09470800310373306 0  0.02304299920797348 0.0938820019364357 0  -0.007927999831736088 0.09066499769687653 0  -0.007131000049412251 0.09096799790859222 0  -0.007739999797195196 0.09144499897956848 0  -0.006930000148713589 0.0917539969086647 0  -0.01779899932444096 0.08888799697160721 0  -0.01805900037288666 0.08826199918985367 0  -0.01712599955499172 0.08858799934387207 0  -0.01866599917411804 0.08881700038909912 0  -0.01542999967932701 0.09429299831390381 0  -0.01575700007379055 0.09492000192403793 0  -0.01612100005149841 0.09422200173139572 0  -0.01105200033634901 0.08895599842071533 0  -0.01030599977821112 0.08918099850416183 0  -0.01090900041162968 0.08966799825429916 0  -0.01181299984455109 0.08873800188302994 0  -0.0112100001424551 0.0882520005106926 0  -0.01197099965065718 0.08803500235080719 0  -0.01437199953943491 0.08994100242853165 0  -0.01493600010871887 0.09041000157594681 0  -0.01517200004309416 0.0897039994597435 0  -0.01317999977618456 0.08899900317192078 0  -0.01396999973803759 0.08877799659967422 0  -0.01336100045591593 0.08830100297927856 0  0.01040299981832504 0.08893600106239319 0  0.01139700040221214 0.08883699774742126 0  0.01076599955558777 0.08949799835681915 0  0.007505999878048897 0.07783699780702591 0  0.008040999993681908 0.07701700180768967 0  0.00849900022149086 0.07773800194263458 0  -0.008729999884963036 0.01672999933362007 0  -0.007966999895870686 0.01688900031149387 0  -0.00954199954867363 0.01666899956762791 0  -0.01039000041782856 0.01660599932074547 0  -0.01377999968826771 0.01678000018000603 0  -0.01396800018846989 0.01789399981498718 0  -0.01455300021916628 0.01701599918305874 0  -0.0132250003516674 0.01766199991106987 0  -0.01321600005030632 0.01871299929916859 0  -0.01245899964123964 0.01778900064527988 0  -0.01268399972468615 0.02166599966585636 0  -0.01315800007432699 0.02071899920701981 0  -0.01229900028556585 0.02071000076830387 0  -0.01189500000327826 0.01980400085449219 0  -0.01135700009763241 0.02062899991869926 0  -0.01277900021523237 0.01972400024533272 0  -0.01354200020432472 0.02172699943184853 0  -0.01486700028181076 0.02100900001823902 0  -0.01524899993091822 0.02197800017893314 0  -0.014402000233531 0.02185799926519394 0  -0.01001499965786934 0.01951099932193756 0  -0.01133500039577484 0.03075199946761131 0  -0.01182700041681528 0.02989399991929531 0  -0.01092899963259697 0.02979299984872341 0  -0.006333000026643276 0.0291569996625185 0  -0.006763000041246414 0.03014600090682507 0  -0.007259999867528677 0.029296999797225 0  -0.009112999774515629 0.01950999908149242 0  -0.006823999807238579 0.01875600032508373 0  -0.007734999991953373 0.01866799965500832 0  -0.007040000054985285 0.01790600083768368 0  -0.007143000140786171 0.01706000044941902 0  -0.00622999994084239 0.01724999956786633 0  0.04361800104379654 0.08318100124597549 0  0.04442499950528145 0.08255100250244141 0  0.04417400062084198 0.08375400304794312 0  0.043163001537323 0.08400099724531174 0  0.01448999997228384 0.05722400173544884 0  0.01548700034618378 0.05695100128650665 0  0.01510099973529577 0.05790600180625916 0  0.02648100070655346 0.04020699858665466 0  0.02685200050473213 0.03910199925303459 0  0.02737399935722351 0.03972199931740761 0  0.02892900072038174 0.0438929982483387 0  0.02976099960505962 0.04307499900460243 0  0.03015599958598614 0.04374299943447113 0  0.02896199934184551 0.04731500148773193 0  0.02805100008845329 0.04755400121212006 0  0.02849199995398521 0.04654600098729134 0  0.02799900062382221 0.04582300037145615 0  0.02897500060498714 0.04553499817848206 0  0.0275420006364584 0.04681900143623352 0  0.02710900083184242 0.04781299829483032 0  0.02700700052082539 0.04612699896097183 0  0.02641100063920021 0.0454769991338253 0  0.02600700035691261 0.04642299935221672 0  0.02539299987256527 0.04576899856328964 0  0.040973000228405 0.08530600368976593 0  0.03994200006127357 0.08541099727153778 0  0.04058400169014931 0.08475799858570099 0  0.03957799822092056 0.08483699709177017 0  0.005510999821126461 0.02280700020492077 0  0.006178000010550022 0.02323500066995621 0  0.005557000171393156 0.02390599995851517 0  0.006279999855905771 0.02422099933028221 0  0.02499900013208389 0.04671499878168106 0  0.02120600081980228 0.04945399984717369 0  0.02081700041890144 0.05040600150823593 0  0.02020099945366383 0.04972900077700615 0  0.02181700058281422 0.05013100057840347 0  0.02764100022614002 0.04854600131511688 0  0.01557799987494946 0.03338000178337097 0  0.01476499997079372 0.03331900015473366 0  0.01510099973529577 0.03237299993634224 0  0.01085499953478575 0.0391869992017746 0  0.01002399995923042 0.03924600034952164 0  0.01039799954742193 0.03830499947071075 0  0.009566999971866608 0.03836499899625778 0  0.009193000383675098 0.03930500149726868 0  0.009111000224947929 0.03748000040650368 0  0.009940999560058117 0.0374240018427372 0  0.01048099994659424 0.04012899845838547 0  -0.02566199935972691 0.06495899707078934 0  -0.02465000003576279 0.06554199755191803 0  -0.02560999989509583 0.06570799648761749 0  -0.02396100014448166 0.06505399942398071 0  -0.02365300059318542 0.06589999794960022 0  -0.0226879995316267 0.06625399738550186 0  -0.02318999916315079 0.06682500243186951 0  -0.02209299989044666 0.06571699678897858 0  -0.02174000069499016 0.06658799946308136 0  -0.02227899990975857 0.06714999675750732 0  -0.02574400044977665 0.06329499930143356 0  -0.017705999314785 0.07839299738407135 0  -0.01862500049173832 0.07810600101947784 0  -0.01774900034070015 0.08575200289487839 0  -0.01858399994671345 0.08554600179195404 0  -0.01800199970602989 0.08504600077867508 0  -0.01883300021290779 0.08484499901533127 0  -0.01825799979269505 0.08433400094509125 0  -0.01717800088226795 0.08794300258159637 0  -0.0163940005004406 0.0881510004401207 0  -0.01626699976623058 0.08881600201129913 0  -0.01316700037568808 0.08179499953985214 0  -0.01061099953949451 0.07714399695396423 0  -0.009688000194728374 0.07744099944829941 0  -0.01019500009715557 0.07797800004482269 0  -0.009820000268518925 0.07878299802541733 0  -0.009297000244259834 0.07825800031423569 0  -0.01431700028479099 0.07446199655532837 0  -0.01477599982172251 0.0735590010881424 0  -0.01384400017559528 0.07387399673461914 0  -0.01291100028902292 0.0741880014538765 0  -0.01335600018501282 0.0732870027422905 0  -0.01714199967682362 0.07646399736404419 0  -0.01666600070893764 0.07589299976825714 0  -0.01760200038552284 0.07558400183916092 0  -0.01853900030255318 0.0752749964594841 0  -0.02284399978816509 0.06770999729633331 0  -0.02345800027251244 0.06977800279855728 0  -0.02308600023388863 0.07065100222826004 0  -0.021891999989748 0.02362800016999245 0  -0.02212000079452991 0.02412999980151653 0  -0.02226400002837181 0.02460999973118305 0  -0.0224200002849102 0.02512699924409389 0  -0.02164099924266338 0.02533899992704391 0  -0.01924699917435646 0.02371600084006786 0  -0.01844299957156181 0.02386800013482571 0  -0.02005599997937679 0.02353500016033649 0  -0.0214259997010231 0.02260500006377697 0  -0.01756899990141392 0.01831299997866154 0  -0.01720100082457066 0.01907699927687645 0  -0.01823000051081181 0.01868999935686588 0  -0.01689000055193901 0.01792700029909611 0  -0.01806499995291233 0.02305000089108944 0  -0.
[...]
<PointData  Scalars="pressure"> 
<DataArray  type="Float64"  Name="pressure"  format="ascii">4.3949626753597329e-02  4.4126869659975060e-02  4.3981746712389400e-02  4.4146826975807414e-02  4.3820808142563332e-02  4.4032198822432034e-02  4.4185256745187744e-02  4.4192027109787917e-02  4.4305996909298484e-02  4.4042442091421045e-02  4.2112383930703351e-02  4.2202966817128588e-02  4.2199293150005944e-02  4.2303037390084217e-02  4.0558855450915830e-02  4.0461391008297175e-02  4.0642667515258767e-02  4.1696540062240009e-02  4.1705871970941243e-02  4.1884783332783899e-02  4.1772688125106310e-02  3.6886862148784678e-02  3.7087383587636802e-02  3.7059498332433792e-02  3.8847261261572501e-02  3.8632662023272007e-02  3.8685426554939645e-02  3.8790854098603125e-02  4.4522845810917894e-02  4.4449415446175533e-02  4.4482129441487592e-02  4.4494500469779409e-02  4.4563018575484677e-02  4.4415465091947319e-02  4.4372238289035165e-02  4.4266314856724172e-02  4.4331063758018811e-02  4.4483610181659881e-02  4.4481864521033587e-02  4.4391326376035378e-02  4.4296516118369988e-02  4.4415772575531691e-02  4.4283338036774089e-02  4.3526702909013837e-02  4.3530043426932986e-02  4.3340250647431473e-02  4.3716283500080333e-02  4.3883309709930388e-02  4.3886051035663405e-02  1.0544340168474694e-02  9.6692945510919257e-03  1.0607399319517293e-02  8.3967800505655634e-03  7.8219791980482564e-03  9.3489808028022810e-03  1.7627906403817797e-02  1.6729854897249936e-02  1.7788510866526448e-02  1.7482519430224389e-02  1.6440663399207221e-02  3.3639980319517253e-02  3.3287070325385512e-02  3.3381382855077718e-02  3.3025957994451662e-02  3.6193995003564745e-02  3.6400674893064380e-02  3.6051867999926386e-02  3.6196532263842555e-02  3.4587724712616640e-02  3.4323918082239814e-02  3.4502660425283382e-02  3.4959891442596008e-02  3.4721536618376965e-02  3.4716044593998741e-02  3.5184988452223759e-02  3.5222525794151430e-02  3.5441699378439454e-02  3.5293456395203336e-02  3.5255261166846311e-02  3.5476688639613105e-02  3.5356754577195844e-02  3.5553793562982411e-02  3.5601386177803805e-02  1.6180462156643149e-02  1.5157750680824237e-02  1.5903159786016419e-02  2.7868826775525057e-02  2.8240894152456609e-02  2.7260488835073760e-02  4.2084969652191995e-02  4.2023970922395029e-02  4.2147248157096653e-02  4.2236915252867914e-02  4.2648257129393040e-02  4.2750873882984028e-02  4.2775176539231193e-02  4.2624677255642188e-02  4.2678298960906649e-02  4.2518039136373018e-02  4.2793093303214805e-02  4.2802835431575675e-02  4.2657187636464353e-02  4.2540006732236353e-02  4.2514149847220371e-02  4.2670049274484756e-02  4.2951065060607613e-02  4.3149671055661080e-02  4.3330612930588763e-02  4.3135900955764896e-02  4.2289762678226824e-02  4.3151757561671653e-02  4.3119035929251551e-02  4.2995258547926435e-02  4.2632020740542363e-02  4.2782465639523690e-02  4.2721150870925893e-02  4.2203477355704171e-02  4.2028187274512650e-02  4.2063699566503431e-02  4.1996603760659196e-02  4.1977854282206989e-02  4.1962885422206705e-02  5.8259140311133235e-03  5.6243859352731237e-03  5.1391322941793010e-03  6.0378293755005853e-03  2.7763429541599955e-02  2.8220791520520035e-02  2.7413469951503348e-02  4.5885276196991322e-02  4.5881831710855379e-02  4.6060892688781517e-02  4.6508616558499166e-02  4.6605767287081136e-02  4.6678240231202386e-02  4.5764712455289625e-02  4.5495100289134248e-02  4.5968652386188642e-02  4.6088230652820791e-02  4.6272816705476442e-02  4.5678832264610045e-02  4.5084589221956940e-02  4.5776159807030696e-02  4.5793990279609724e-02  4.5329412261996105e-02  4.5343625467627054e-02  8.4468577232755318e-03  9.3913693253188137e-03  8.5555374063973916e-03  9.4017339853155954e-03  4.2078955478228701e-02  4.2088611544289098e-02  4.2042058570952869e-02  4.2079775207132006e-02  4.4729907865421796e-02  4.0204487126436567e-02  3.8908153877740013e-02  3.9216767308258349e-02  3.9943605939757224e-02  4.4845713647673230e-02  4.2787257888793749e-02  4.2694974383489126e-02  4.2679422983415032e-02  4.2021569585019514e-02  4.1903848152667060e-02  4.2138789152961063e-02  4.2027177014350783e-02  4.1802801994426014e-02  4.2117541931999528e-02  4.2211144044826822e-02  4.1730457677942930e-02  4.1574877249363519e-02  4.1487979759077663e-02  4.1323956539955360e-02  4.1477484642829250e-02  4.1267610246111738e-02  4.1089575158723163e-02  4.1025442146723580e-02  4.1139472048883435e-02  4.0887390037683373e-02  4.0844386687892004e-02  4.1896394510851261e-02  3.8523953145250249e-02  3.8717472305410325e-02  3.6994805891705555e-02  3.7130574552334795e-02  3.7232639690237788e-02  3.7364788651368511e-02  3.7458493300226353e-02  3.6234971248542462e-02  3.6093071986733449e-02  3.5884874752538161e-02  3.7251860840784169e-02  3.6696495030031126e-02  3.6460266554296974e-02  3.6645853124640762e-02  3.6591161884896063e-02  3.6407793356593589e-02  3.7787543451799320e-02  3.7949903435346301e-02  3.7603521379054781e-02  3.7279397123135140e-02  3.7406444039193062e-02  3.8560930596613988e-02  3.8473388021249007e-02  3.8722524967413137e-02  3.8966631470463892e-02  4.0808275720541680e-02  4.0486993912380559e-02  4.0322749354141603e-02  4.4511105863653554e-02  4.4532623489378940e-02  4.4561133873403581e-02  4.4558210482449151e-02  4.4566427779156703e-02  4.4296512084581761e-02  4.4179341815591161e-02  4.4391064423840471e-02  4.4450053648701242e-02  4.3368418601802225e-02  4.3410725859598917e-02  4.3516572960508509e-02  4.3207155958815829e-02  4.4046591789399507e-02  4.3714337906429937e-02  4.3695517201932085e-02  4.3875875145197654e-02  4.3271135258232916e-02  4.3359240237589747e-02  4.3466631272120006e-02  4.2637515439899944e-02  4.2611892328324193e-02  4.2607070210707705e-02  4.2735385281768914e-02  4.2506683181711184e-02  4.2500141541009701e-02  4.2613590965782669e-02  4.2612666171403690e-02  4.2703471344110330e-02  4.7524015221557777e-03  3.2928462847321475e-03  4.7289231242130325e-03  8.3288577590181594e-03  8.0454902102917933e-03  8.8005538013818628e-03  1.1439569743187314e-02  1.1994622218759200e-02  1.1842102546608255e-02  1.0486615652307046e-02  1.2105276855174643e-02  1.3501688205159327e-02  1.2269093646054781e-02  1.1023339759515513e-02  1.1281557219827331e-02  1.0398800251855838e-02  1.0158413769336296e-02  9.4575129058684093e-03  1.0163774969253681e-02  9.5461244846490635e-03  8.4008353511388356e-03  9.7252502161014436e-03  1.0403029398430987e-02  1.1295393047420490e-02  1.1848268402656818e-02  1.1011574756362144e-02  9.3396817713454344e-03  1.7242715175819351e-02  1.7231848577324682e-02  1.6477566873451564e-02  1.5758588411230404e-02  1.6669437105373001e-02  1.6226578232495667e-02  1.7334544014169957e-02  3.4226104631243370e-02  3.4246993096386263e-02  3.4478303266354197e-02  3.4475855958582206e-02  3.3568481110929881e-02  3.0683251061188653e-02  3.1104683764134906e-02  3.0170556791715864e-02  3.3146309987988988e-02  3.5947354463728411e-02  3.4926405224335051e-02  3.5130866001702558e-02  3.5132077540546480e-02  3.4666218074757900e-02  3.4933094319830667e-02  3.4471720182467976e-02  3.4631187582389353e-02  3.4657617510340251e-02  3.4481104171453725e-02  3.5007609379332630e-02  3.5261159941820108e-02  3.4963441020345196e-02  3.5813181814928090e-02  3.5795352722849685e-02  3.6039848387748520e-02  3.5797866690525440e-02  3.4984321911221389e-02  3.4485678291932574e-02  3.4267740406607003e-02  3.4847381560415246e-02  3.5047424607679123e-02  3.4867994605939173e-02  3.4888767714907433e-02  3.4689320870962603e-02  3.4942906698786698e-02  3.5154703898414845e-02  3.4924751560496362e-02  3.5394901074377837e-02  3.4906080811650031e-02  3.4704941638670585e-02  3.5101122615718933e-02  3.4967960321573940e-02  3.5435227940827436e-02  3.5516257805293938e-02  3.5126427628344080e-02  2.9704954718660345e-02  2.9880544622140116e-02  2.9273892897890418e-02  2.9464433325290990e-02  3.1698788765830217e-02  3.1414319560682163e-02  3.1125545735017641e-02  3.1428574633771543e-02  2.9915504782389014e-02  2.9685530904436788e-02  2.9466380681981208e-02  3.0331149618556374e-02  3.0127497853205915e-02  3.1208979635770236e-02  3.0813976319737632e-02  3.1451139885771785e-02  3.0647854681245312e-02  3.0942561891544436e-02  1.8388363144204379e-02  1.7797243018514354e-02  1.7899993799227697e-02  1.8488279270284590e-02  1.9051327271320036e-02  2.6925945875795873e-02  2.7556900727032138e-02  2.7194671707809800e-02  2.7481527378998862e-02  2.7599306708761925e-02  2.6861010853652334e-02  2.8776829642136979e-02  2.8049489183204372e-02  2.8585876364129435e-02  1.2362686683362392e-02  1.2085798007290110e-02  1.2385610478303059e-02  1.2680851648122913e-02  1.2786137103422997e-02  1.2563748126332500e-02  2.8777935125466243e-02  2.9586316657918537e-02  2.9252674998646609e-02  2.9126970290922101e-02  2.8449460258318335e-02  2.9688152499177813e-02  2.9221251483513018e-02  2.9450962668798604e-02  2.8773904138291201e-02  2.9265225461739802e-02  2.9959264863482944e-02  3.5543215544062284e-02  3.4516190141812765e-02  3.6135451443537088e-02  3.5067574401714853e-02  3.8905003677223410e-02  3.7714183087695009e-02  3.8115599579024037e-02  4.3256597122152109e-02  4.3483580678856423e-02  4.3399126749851955e-02  3.4484428282945942e-02  3.4911653210747066e-02  3.4755355804706504e-02  3.3150236514478529e-02  3.2692404066888892e-02  3.2519071823252976e-02  3.2399708063465697e-02  3.1859737663321112e-02  1.2165929573506630e-02  1.2700845799014987e-02  1.2374544681961749e-02  1.2792787871552755e-02  2.6185048540410556e-02  2.6403048142578864e-02  2.7081900769894925e-02  2.5959430110048479e-02  2.5226064093818536e-02  2.4846346455528464e-02  2.5765788725347908e-02  2.6684659713828968e-02  2.5479590604227879e-02  2.3536673489536249e-02  2.3746145436609224e-02  2.4994395148619005e-02  2.2384357122092659e-02  1.8801216885505109e-02  1.7872401779309731e-02  1.7640373284215752e-02  2.4013405573906483e-02  2.4304243896851173e-02  2.3137627777764246e-02  1.3564009277962280e-02  1.4190739433406050e-02  1.4110446602163486e-02  1.4766563685816957e-02  1.3343195805715054e-02  1.3121772555817748e-02  1.4961886710973916e-02  1.4447372652145027e-02  1.5468705354017055e-02  1.4932035813809450e-02  1.4719043051569293e-02  1.5527945075121140e-02  1.5582866698571958e-02  1.4787928055147533e-02  1.6740026112578962e-02  2.6381744251509760e-02  2.6730136915375579e-02  2.7050288568263862e-02  2.6153354883994579e-02  2.6914326068963330e-02  2.7828542281266321e-02  2.3722421532995148e-02  2.4192218228698967e-02  2.4846163375492666e-02  4.3164351899708783e-02  4.3051070215351227e-02  4.2911114651233415e-02  4.3052111646044583e-02  4.2810711999730897e-02  4.2536288103647166e-02  4.2425749516118105e-02  4.2428656613887825e-02  4.2410939555218484e-02  4.2398095678342962e-02  4.2330691086621956e-02  4.2296232783924845e-02  4.3266696381717894e-02  4.3150947760707506e-02  4.3310021106563540e-02  4.3424805295003623e-02  4.2844945158280690e-02  4.2741899205348675e-02  4.2757153867388008e-02  4.2679757411223547e-02  4.2661486790459162e-02  4.2627437400362463e-02  4.2737378188206429e-02  4.2297017099250239e-02  4.2370279776663952e-02  4.2323766920365546e-02  4.2431982542235618e-02  4.2406501405203877e-02  4.2124012788162149e-02  4.2134460754714415e-02  4.2057464494196999e-02  4.2115283811438420e-02  4.2357328052399709e-02  4.2186379201667568e-02  4.2431450751908746e-02  4.4349429213478821e-02  4.4880446790793296e-02  4.4687287081429876e-02  4.4920325961446468e-02  4.4656113818124593e-02  4.5017015794720935e-02  3.3261509339487835e-02  3.1825171474576988e-02  3.1836769638840974e-02  1.0522143540856338e-02  3.6210438475181225e-02  3.6520822730329985e-02  3.7940111630236147e-02  5.9657711589005333e-03  7.3943893872007518e-03  6.7616024089452572e-03  6.9809065776378241e-03  6.8242996797074750e-03  4.4938954205954583e-02  4.5592294920940989e-02  4.5093971961890925e-02  4.5461522760770291e-02  4.5735687623426093e-02  4.4732726678669149e-02  4.5165970335579807e-02  3.7716471426826097e-02  3.9220974247348821e-02  3.8029446660901460e-02  4.0663793822329014e-02  4.0346366337874855e-02  3.9554211132515879e-02  4.3599900341027807e-02  4.4519526539701690e-02  4.4086300131383475e-02  4.3837847950443272e-02  4.2984546939449385e-02  4.2724350630962575e-02  4.3508912610238482e-02  4.1060056330559896e-02  4.1741542636814635e-02  4.0300075790437276e-02  3.8673030136621996e-02  3.9406075304019329e-02  3.7717148802020782e-02  4.2091429532178475e-02  4.2528633905129336e-02  4.1516034634869137e-02  3.9200732589767882e-02  4.0688698418317133e-02  2.7183378116364294e-02  2.7695903414658114e-02  2.7473022962175690e-02  2.9288948602588741e-02  2.9762589032804366e-02  3.0552735745177282e-02  2.9472858479485668e-02  3.1461019550277670e-02  3.1940569189701118e-02  3.1918016401237884e-02  3.1510183129269537e-02  3.0967766121305352e-02  3.0859134100377487e-02  3.3457214042859396e-02  3.4088091610788483e-02  3.3060747833540849e-02  3.2964318691548956e-02  3.3896599331015381e-02  3.1869152288220487e-02  3.1315879339780382e-02  3.1226219571885417e-02  3.2505152327385621e-02  3.2098343258347109e-02  2.7931399453020402e-02  2.8607704960436482e-02  2.8516131487774748e-02  2.8026997873676265e-02  2.7422161528540229e-02  2.7357663981758762e-02  3.0509797102249450e-02  2.9852547439199340e-02  2.9924031294964359e-02  2.1740859950617170e-02  2.0658890869362193e-02  2.0886929847066138e-02  2.8252681426277421e-02  2.7896122232430515e-02  4.6040291368490888e-02  4.5917269116234873e-02  4.6280843707406961e-02  4.6080631779412573e-02  4.5479323456461759e-02  4.6597636736026064e-02  4.6514709931889789e-02  4.6414253508204252e-02  4.6463541766138872e-02  4.6335998754715578e-02  4.6138998609694296e-02  4.6091265625124542e-02  4.6223556073936634e-02  4.5980069485199365e-02  4.6080072930886139e-02  4.4770973257283964e-02  4.4058247745177900e-02  4.1799628923582945e-02  4.0860280907781231e-02  4.1048161326213022e-02  4.5903170655590637e-02  4.6084667554076232e-02  4.5244338265629507e-02  4.6121430317083566e-02  8.6316408167468953e-03  4.2079987662161845e-02  4.2140047937739067e-02  4.2133690703425736e-02  4.2201068820407993e-02  4.2125630965173418e-02  4.2199570273407629e-02  4.2120204529670878e-02  4.2223510068392499e-02  4.2247111429766344e-02  4.2276955394546477e-02  4.2243045758617745e-02  4.2194116718890971e-02  4.2172293806303968e-02  4.2331289905053728e-02  4.2371285100072452e-02  4.2364652244622214e-02  4.2327899795490946e-02  4.2408956812181965e-02  4.2404769182672164e-02  4.2394734194155369e-02  4.2347571386056701e-02  3.8539408802725938e-02  3.8162965952805973e-02  3.7101242405639695e-02  4.1924005792738674e-02  4.0956514775547133e-02  4.2131569015893447e-02  4.2326754608210310e-02  4.3204627240921334e-02  4.1174238373046151e-02  4.4018238148433898e-02  4.2946338937797694e-02  4.3350156917015381e-02  2.8281402153696771e-02  2.7960020744501921e-02  2.8680903466372573e-02  3.4397735252302081e-02  3.5314360375216319e-02  3.6096099388653879e-02  4.2663792425171189e-02  4.2695054767275621e-02  4.2769385743304682e-02  4.2772668028510111e-02  4.2706081146574204e-02  4.2835283412384878e-02  4.2639252249553325e-02  4.2622824037754893e-02  4.2714323746842170e-02  4.4469615599320202e-02  4.4706319692446018e-02  4.4489221967606178e-02  4.4262742445951943e-02  4.4263270777515053e-02  4.4083106534468619e-02  4.3885372811865893e-02  4.3855884635284462e-02  4.3674672202091890e-02  4.3498776105766267e-02  4.3470108102551683e-02  4.3368646792068574e-02  4.3297205974258984e-02  4.3469775510559083e-02  4.3491754046638069e-02  4.3300791756933583e-02  4.2103615590500652e-02  4.2110050843709529e-02  4.2017786258382733e-02  4.2013282410746693e-02  4.0857642547996391e-02  4.1193534451333010e-02  4.0528028921411212e-02  4.0584350834224056e-02  4.1171983622142881e-02  4.2567220498932141e-02  4.2252386653082841e-02  4.2161081137534424e-02  4.1665823740037550e-02  4.1445432710210291e-02  4.0741625887276131e-02  4.1242405944273877e-02  4.0929240016033958e-02  4.1438059031823994e-02  4.1670190698505097e-02  4.1872298068180533e-02  4.2030323201184598e-02  4.1504028620866690e-02  4.1603464373096991e-02  4.0032200957256008e-02  3.9970541143461394e-02  3.9669614810071308e-02  3.4134418415837517e-02  3.4168968659355196e-02  3.4007214762553223e-02  4.0615862962981905e-02  4.0590788441141508e-02  4.1144800623943233e-02  4.1566146889307397e-02  3.7824604940625776e-02  3.7842913045398191e-02  3.7652596105691209e-02  3.7794475215027080e-02  3.7992688765740683e-02  3.7632140401956518e-02  3.7947344286358535e-02  3.8509473115331691e-02  3.8374020131746012e-02  3.8592469572419838e-02  3.8474477857560647e-02  3.8190242810378208e-02  3.8018814239130193e-02  3.8160307731572495e-02  3.8362850071065685e-02  3.8555081578168705e-02  3.6501119188344588e-02  3.6667635245206498e-02  3.6716097663290891e-02  3.6637993706353532e-02  3.6912528053091136e-02  3.6885423553621018e-02  3.7167380007341766e-02  3.7410557295204067e-02  3.7237270327645532e-02  3.7480338605521871e-02  3.7298165879139436e-02  3.7523650307928924e-02  3.6910823041659699e-02  3.6415295838682013e-02  3.5644122162727825e-02  3.5932289314046982e-02  3.5833036681961729e-02  3.5557192330956597e-02  3.6757293461687428e-02  3.6529369686339616e-02  3.6688725360284787e-02  3.5641250514208710e-02  3.5881962649266338e-02  3.5704741399513476e-02  3.6070044291508577e-02  3.5819253842295583e-02  3.6449918892359601e-02  3.6186202154931665e-02  3.6004516451797530e-02  3.6236263998481781e-02  3.6842993691280849e-02  3.6136947914253738e-02  3.6206016173703996e-02  3.8240560839225120e-02  3.8086394335637916e-02  3.7767919561654567e-02  3.8111203979703925e-02  3.7935417217558984e-02  3.4059196451304487e-02  3.4247603574875739e-02  3.8314044512936983e-02  3.8471999404564965e-02  3.8122082541518471e-02  3.9422082616124426e-02  3.9349616375823383e-02  3.9127016226168217e-02  4.0389458595971151e-02  4.0131436346425783e-02  4.0153351621335945e-02  3.8312529260261276e-02  3.8899349810523183e-02  3.8639596459204492e-02  3.8816457594615300e-02  4.0695175758257748e-02  4.0737071765395906e-02  4.0417905991294432e-02  4.0315433135174383e-02  4.0240866795394160e-02  4.4556364404758450e-02  4.4545457962505398e-02  4.4550441585212132e-02  4.4485670521834497e-02  4.4521809537558285e-02  4.3780391246045443e-02  4.3659164259432094e-02  4.3520076032175482e-02  4.3336588428992094e-02  4.3709835117455180e-02  4.3693685991168039e-02  4.3513767158171922e-02  4.4329644377417612e-02  4.4293444961342382e-02  4.4327965163798388e-02  4.4310174124574518e-02  4.4345542867861541e-02  4.4394933586734742e-02  4.4342697105148779e-02  4.4083711814726881e-02  4.3965733184514820e-02  4.4007913609654004e-02  4.4109936473254598e-02  4.4053114973918638e-02  4.4143156956559945e-02  4.4175745090380483e-02  4.3940263608713809e-02  4.4099974804518098e-02  4.4152522779498680e-02  4.4174316646523708e-02  4.4367131607280522e-02  4.4354597753478303e-02  4.4362373422087514e-02  4.4363254038481910e-02  4.4282512065542644e-02  4.3848712303776419e-02  4.5146121584545451e-02  4.5132226598280423e-02  4.5047513343996731e-02  4.5041935899128152e-02  4.3579901361710367e-02  4.3684964241583003e-02  4.3699842520883887e-02  4.3694203894366061e-02  4.3821348019933287e-02  4.3753164823003621e-02  4.3592239648191033e-02  4.4085562270927262e-02  4.4165904345482565e-02  4.4231871326080099e-02  4.4355600577843789e-02  4.4346863955577166e-02  4.3860553490172816e-02  4.3939356095672420e-02  4.4015013253688361e-02  4.4077469923256625e-02  4.3916994780728129e-02  4.3808581764245798e-02  4.3750434618975674e-02  4.3682176435341002e-02  4.3559432038529237e-02  4.2850903212635308e-02  4.2962360781812245e-02  4.3024524333241082e-02  4.3177407828115286e-02  4.3401727004974681e-02  4.3007754593172430e-02  4.3144681948214240e-02  4.2888149391641039e-02  4.2851699262913545e-02  4.2781916752977156e-02  4.2903583119209963e-02  4.2687774447051463e-02  4.2501283388149812e-02  4.2390797571454655e-02  4.2624939184396388e-02  4.2511736870189151e-02  4.2420422633549629e-02  4.2450241949654619e-02  3.3456276501750686e-03  1.845521549