<?xml version="1.0"?>
<VTKFile type="UnstructuredGrid"  version="0.1"  >
<UnstructuredGrid>
<Piece  NumberOfPoints="6340" NumberOfCells="12376">
<Points>
<DataArray  type="Float64"  NumberOfComponents="3"  format="ascii">-0.01912200078368187 0.02061500027775764 0  -0.01971999928355217 0.02121300064027309 0  -0.01995999924838543 0.02025000005960464 0  -0.02042699977755547 0.02089999988675117 0  -0.01936100050806999 0.01970300078392029 0  -0.01894900016486645 0.02148200012743473 0  -0.01937600038945675 0.02216299995779991 0  -0.01892800070345402 0.0229909997433424 0  -0.01976699940860271 0.0228240005671978 0  -0.01850800029933453 0.02221499942243099 0  -0.008833000436425209 0.01771499961614609 0  -0.009448000229895115 0.01862099952995777 0  -0.009781000204384327 0.01768399961292744 0  -0.01040299981832504 0.01862999983131886 0  -0.02450999990105629 0.07043100148439407 0  -0.02541900053620338 0.07067199796438217 0  -0.02555900067090988 0.06991700083017349 0  -0.02470600046217442 0.06422699987888336 0  -0.02534699998795986 0.06480400264263153 0  -0.0254880003631115 0.06392999738454819 0  -0.02621999941766262 0.06421999633312225 0  -0.01246900018304586 0.0828780010342598 0  -0.01330299954861403 0.08264700323343277 0  -0.01271400041878223 0.08214700222015381 0  -0.01896099932491779 0.07684200257062912 0  -0.01802000030875206 0.07713600248098373 0  -0.01853100024163723 0.0776899978518486 0  -0.01845600083470345 0.07628100365400314 0  -0.02121900022029877 0.02395999990403652 0  -0.02044199965894222 0.02421499975025654 0  -0.02074499987065792 0.02486000023782253 0  -0.02101200073957443 0.02552000060677528 0  -0.02153800055384636 0.02461099997162819 0  -0.01995999924838543 0.02512099966406822 0  -0.01963900029659271 0.02439800091087818 0  -0.01882399991154671 0.02456000074744225 0  -0.01915900036692619 0.02528800070285797 0  -0.02091200090944767 0.02329700067639351 0  -0.02175999991595745 0.02307399921119213 0  -0.02129000052809715 0.02209999971091747 0  -0.0208710003644228 0.02151699922978878 0  -0.02058099955320358 0.02257600054144859 0  -0.02014899998903275 0.02190200053155422 0  -0.01609399914741516 0.02200900018215179 0  -0.01658800058066845 0.02112800069153309 0  -0.01567799970507622 0.02112600021064281 0  -0.01693500019609928 0.02210500091314316 0  -0.01776400022208691 0.02206699922680855 0  -0.01729599945247173 0.02295400016009808 0  0.03918299823999405 0.07642800360918045 0  0.03900200128555298 0.07554899901151657 0  0.04018599912524223 0.07562299817800522 0  0.04025499895215034 0.08667399734258652 0  0.04094899818301201 0.08689499646425247 0  0.03987200185656548 0.08733599632978439 0  0.0225210003554821 0.09442500025033951 0  0.02277900092303753 0.09374299645423889 0  0.02358200028538704 0.0939909964799881 0  0.02154600061476231 0.09482300281524658 0  0.02181700058281422 0.09399899840354919 0  -0.008562999777495861 0.09064400196075439 0  -0.007776999846100807 0.09094499796628952 0  -0.008409000001847744 0.09142100065946579 0  -0.00761000020429492 0.09172800183296204 0  -0.01847199909389019 0.08897999674081802 0  -0.01871299929916859 0.08836500346660614 0  -0.0177800003439188 0.08867699652910233 0  -0.01934600062668324 0.088919997215271 0  -0.01627499982714653 0.09429600089788437 0  -0.01662899926304817 0.09492000192403793 0  -0.01697099953889847 0.09423200041055679 0  -0.01165600027889013 0.0889739990234375 0  -0.01091099996119738 0.08918999880552292 0  -0.01153699960559607 0.08967699855566025 0  -0.01241500023752451 0.08876500278711319 0  -0.01178800035268068 0.08827900141477585 0  -0.01254700031131506 0.08806999772787094 0  -0.01504299975931644 0.08997900038957596 0  -0.01562999933958054 0.09044899791479111 0  -0.01584099978208542 0.08975400030612946 0  -0.01380399987101555 0.0890360027551651 0  -0.01459399983286858 0.08882699906826019 0  -0.01396100036799908 0.08834899961948395 0  0.009668000042438507 0.08896899968385696 0  0.01064800005406141 0.08887699991464615 0  0.009995000436902046 0.08953399956226349 0  0.007395999971777201 0.07785800099372864 0  0.007961000315845013 0.07704299688339233 0  0.008375000208616257 0.07776600122451782 0  -0.008580000139772892 0.01679999940097332 0  -0.007801999803632498 0.01697099953889847 0  -0.009402000345289707 0.01673300005495548 0  -0.01025899965316057 0.01666299998760223 0  -0.01369000039994717 0.01679999940097332 0  -0.01388700027018785 0.01790699921548367 0  -0.01447600033134222 0.01702599972486496 0  -0.01313299965113401 0.01768499985337257 0  -0.01312999986112118 0.01873200014233589 0  -0.01235899981111288 0.01782000064849854 0  -0.01260599959641695 0.02167999930679798 0  -0.01308200042694807 0.0207310002297163 0  -0.01221199985593557 0.02073300071060658 0  -0.01179900020360947 0.01983500085771084 0  -0.01125799957662821 0.02066300064325333 0  -0.01269199978560209 0.01974399946630001 0  -0.01347799971699715 0.02173100039362907 0  -0.01481899991631508 0.02099999971687794 0  -0.01521299965679646 0.02196400053799152 0  -0.01435200031846762 0.02185099944472313 0  -0.009894999675452709 0.01956300064921379 0  -0.01129200030118227 0.03074800036847591 0  -0.01178599987179041 0.0298870000988245 0  -0.01087499968707561 0.02979600057005882 0  -0.00621700007468462 0.02920999936759472 0  -0.006657999940216541 0.03019200079143047 0  -0.007156000006943941 0.02934199944138527 0  -0.008981999941170216 0.01956900022923946 0  -0.006647000089287758 0.01884800009429455 0  -0.007577000185847282 0.01874599978327751 0  -0.006862000096589327 0.01799900084733963 0  -0.00696100015193224 0.01715599931776524 0  -0.006029999814927578 0.01735999993979931 0  0.04255399852991104 0.08345499634742737 0  0.04337599873542786 0.08284000307321548 0  0.04307100176811218 0.084026999771595 0  0.04206699877977371 0.08426400274038315 0  0.0147919999435544 0.05744900181889534 0  0.0157919991761446 0.0571959987282753 0  0.01539199985563755 0.05814199894666672 0  0.02703800052404404 0.04069900140166283 0  0.02742700092494488 0.03959999978542328 0  0.02793700061738491 0.04023699834942818 0  0.02938899956643581 0.0444520004093647 0  0.03023000061511993 0.0436520017683506 0  0.03060599975287914 0.04432699829339981 0  0.02934399992227554 0.04786799848079681 0  0.02844000048935413 0.04808700084686279 0  0.02889899909496307 0.04709000140428543 0  0.02842600084841251 0.04635899886488914 0  0.0293979998677969 0.04609100148081779 0  0.0279530007392168 0.04734399914741516 0  0.02750200033187866 0.04832800105214119 0  0.02743799984455109 0.04664300009608269 0  0.02686299942433834 0.04597900062799454 0  0.02644200064241886 0.04691699892282486 0  0.02584999985992908 0.0462459996342659 0  0.03985000029206276 0.08555299788713455 0  0.03883399814367294 0.0856499969959259 0  0.03949699923396111 0.08500300347805023 0  0.03850600123405457 0.08507499843835831 0  0.005932999774813652 0.02309999987483025 0  0.00661400007084012 0.02353099919855595 0  0.005973000079393387 0.02419400028884411 0  0.006711000110954046 0.0245130006223917 0  0.02543899975717068 0.04718400165438652 0  0.02162200026214123 0.04983000084757805 0  0.02121699973940849 0.05077499896287918 0  0.02061500027775764 0.05007899925112724 0  0.02221599966287613 0.05052600055932999 0  0.0280120000243187 0.04906899854540825 0  0.01614199951291084 0.03371300175786018 0  0.01531600020825863 0.03364500030875206 0  0.01566600054502487 0.03270800039172173 0  0.01129200030118227 0.03944800049066544 0  0.01044000033289194 0.03949899971485138 0  0.01083000004291534 0.03856600075960159 0  0.009976999834179878 0.03861900046467781 0  0.009587000124156475 0.03955100104212761 0  0.009517000056803226 0.03773599863052368 0  0.01036799978464842 0.03768600150942802 0  0.01090199965983629 0.04038200154900551 0  -0.02615600079298019 0.06504599750041962 0  -0.02512500062584877 0.06562700122594833 0  -0.02609699964523315 0.06580100208520889 0  -0.02443099953234196 0.06513100117444992 0  -0.02411199919879436 0.06598299741744995 0  -0.0231309998780489 0.06633300334215164 0  -0.02363700047135353 0.06691200286149979 0  -0.02253299951553345 0.06578700244426727 0  -0.02216899953782558 0.06666400283575058 0  -0.02271099947392941 0.06723400205373764 0  -0.02625099942088127 0.06336800009012222 0  -0.01810799911618233 0.07852400094270706 0  -0.01903799921274185 0.07824099808931351 0  -0.01831999979913235 0.08587899804115295 0  -0.01916100084781647 0.0856809988617897 0  -0.01855600066483021 0.08517900109291077 0  -0.01939300075173378 0.08498500287532806 0  -0.01879500038921833 0.08447200059890747 0  -0.01781100034713745 0.08804100006818771 0  -0.01702399924397469 0.0882359966635704 0  -0.01691799983382225 0.08889099955558777 0  -0.01356299966573715 0.08190400153398514 0  -0.01087499968707561 0.07722900062799454 0  -0.00993799977004528 0.07752200216054916 0  -0.01046200003474951 0.07806400209665298 0  -0.01009599957615137 0.07886900007724762 0  -0.00955399964004755 0.07833900302648544 0  -0.01461999956518412 0.0745450034737587 0  -0.01508000027388334 0.07363899797201157 0  -0.01413400005549192 0.07395099848508835 0  -0.01318799983710051 0.07426200062036514 0  -0.01363500021398067 0.07335799932479858 0  -0.01751299947500229 0.07658100128173828 0  -0.0170230008661747 0.07600200176239014 0  -0.01797300018370152 0.0756940022110939 0  -0.01892399974167347 0.07538799941539764 0  -0.02328000031411648 0.06780199706554413 0  -0.02389900013804436 0.06988299638032913 0  -0.02352100051939487 0.07075899839401245 0  -0.02200900018215179 0.02359100058674812 0  -0.02225000038743019 0.0240899994969368 0  -0.02240600064396858 0.02457199990749359 0  -0.02257400006055832 0.02509200014173985 0  -0.0217719990760088 0.02529999986290932 0  -0.01929499953985214 0.02368799969553947 0  -0.01847299933433533 0.02384000085294247 0  -0.02012199908494949 0.02350600063800812 0  -0.02151799947023392 0.02257299982011318 0  -0.01754599995911121 0.01829000003635883 0  -0.01717700064182281 0.01905399933457375 0  -0.01821999996900558 0.01865999959409237 0  -0.01685499958693981 0.01790999993681908 0  -0.01808200031518936 0.02302199974656105 
[...]
<PointData  Scalars="pressure"> 
<DataArray  type="Float64"  Name="pressure"  format="ascii">1.9472579026807574e-02  1.9571720833200041e-02  1.9501071335576870e-02  1.9601184249792344e-02  1.9420587155005536e-02  1.9517961153326425e-02  1.9612621439747808e-02  1.9652003274655615e-02  1.9702667324381362e-02  1.9548643562276712e-02  1.9170422746813263e-02  1.9184591724392699e-02  1.9116916258497541e-02  1.9130384596331762e-02  2.1872539400585707e-02  2.1791420218006018e-02  2.1998776779614166e-02  2.2130697263095991e-02  2.2415441253993869e-02  2.2392201614083940e-02  2.2455416835607974e-02  1.9614953549830432e-02  1.9813370000259262e-02  1.9674137227588463e-02  2.0819032536294448e-02  2.0656804280876483e-02  2.0781760617211133e-02  2.0696763186342958e-02  1.9922362737578567e-02  1.9847912308076390e-02  1.9896763986478005e-02  1.9938208685813849e-02  1.9972516149048495e-02  1.9879950865635092e-02  1.9813571170001942e-02  1.9776518890544926e-02  1.9852103165573707e-02  1.9866883274887323e-02  1.9935109766742991e-02  1.9796549947763784e-02  1.9704451512202008e-02  1.9787892380399710e-02  1.9676003137961955e-02  1.9358950910726650e-02  1.9319398969746930e-02  1.9268699102809515e-02  1.9419114517862868e-02  1.9476493789223323e-02  1.9521939846149517e-02  4.6514745953090781e-03  2.7898303478508845e-03  4.2028628259010263e-03  9.1549900723863504e-03  8.8444920146404701e-03  1.0472176716597083e-02  1.4503597011121893e-02  1.3582619945270921e-02  1.4854318142682836e-02  1.4195457727869714e-02  1.3131353628282749e-02  1.7882058787303125e-02  1.7727302817165749e-02  1.7739753387758812e-02  1.7594814606089717e-02  1.9861962880624407e-02  2.0025774628271598e-02  1.9564217912940444e-02  1.9842589150584840e-02  1.8768598319332388e-02  1.8704390962725973e-02  1.8825496313278966e-02  1.8674212227539105e-02  1.8505209124199184e-02  1.8514874613428017e-02  1.8841213566560426e-02  1.8830041353331061e-02  1.9000682834775580e-02  1.8964556774183461e-02  1.8929798798233605e-02  1.9110958858586703e-02  1.9003836837566814e-02  1.9164642437823742e-02  1.9174752385543538e-02  8.6140158671593279e-03  7.9936500949514908e-03  8.6813815210440987e-03  1.2512184419508972e-02  1.2873354662323241e-02  1.2529560689614281e-02  1.9166753308150552e-02  1.9206825427917538e-02  1.9110102518389408e-02  1.9074497469291248e-02  1.9021628903598691e-02  1.9063820865844724e-02  1.9045172035125218e-02  1.9054720214289850e-02  1.9078579441219511e-02  1.9048247227026381e-02  1.9246554856091769e-02  1.9177624627759994e-02  1.9187272346660376e-02  1.9143519273514972e-02  1.9215505099216844e-02  1.9123764227226083e-02  1.9244385165935633e-02  1.9222643052251544e-02  1.9309795609194012e-02  1.9269090295910538e-02  1.9217094810455086e-02  2.0434607376023692e-02  2.0236793874692408e-02  2.0293757863877850e-02  2.0895977893015855e-02  2.1007089638125549e-02  2.0778636534498282e-02  1.9290464315173807e-02  1.9511135728578159e-02  1.9371260180117165e-02  1.9390505573424539e-02  1.9306223522595107e-02  1.9468498475764234e-02  4.4120998178399191e-03  4.1398035145241005e-03  4.1700820994066386e-03  5.1926167642001413e-03  1.5468413409142656e-02  1.6224095933637096e-02  1.5462409018458270e-02  3.2282680473959796e-02  3.2092049648004911e-02  3.2450025064134032e-02  3.3761918457344033e-02  3.3821259179373009e-02  3.3972142418708898e-02  3.3479184617146843e-02  3.3175222535836282e-02  3.3525850752508420e-02  3.3498138884417668e-02  3.3731959662973592e-02  3.3195976050977100e-02  3.2740573672838238e-02  3.3136848927834486e-02  3.3000088144683838e-02  3.2638606462627374e-02  3.2474862642657532e-02  8.1340172962378280e-03  8.9080543553922264e-03  7.8564100642905081e-03  8.5030936529653794e-03  2.2013689586654533e-02  2.2193667490163160e-02  2.2170040600990162e-02  2.2402447060782101e-02  3.2004693003300465e-02  2.7543407444470858e-02  2.6411899261283740e-02  2.6434210363066511e-02  2.7555727888657382e-02  3.2671735960108167e-02  2.6044079652063918e-02  2.5793978673820123e-02  2.5694794496555217e-02  2.5231569985356386e-02  2.4943538570604995e-02  2.5148162129634711e-02  2.4893049060779975e-02  2.4672895820631077e-02  2.4779538442658355e-02  2.5034918510916777e-02  2.4973562053262319e-02  2.2413828864584016e-02  2.2314334645218294e-02  2.2212632842830152e-02  2.2051394341993963e-02  2.1975674577252455e-02  2.1824769343996187e-02  2.1850690403934909e-02  2.1785841501533999e-02  2.1667009400309856e-02  2.1700739721698292e-02  2.2434288409495906e-02  2.0744913103980318e-02  2.0889973367029656e-02  2.0229739542692429e-02  2.0304071319620944e-02  2.0376434561533326e-02  2.0456272872793592e-02  2.0517908999587466e-02  1.9691249965098863e-02  1.9598428950463709e-02  1.9438189299412129e-02  1.9879543952806542e-02  1.8457250465928887e-02  1.8136853092781000e-02  1.8439096928354534e-02  1.8457078486708103e-02  1.8136064017789132e-02  1.9532830023608949e-02  1.9613193571805965e-02  1.9294744942550443e-02  1.8959002482292878e-02  1.9030974777689270e-02  2.0515518378797743e-02  2.0364059629662024e-02  2.0566401773095665e-02  2.0754662476217250e-02  2.1733651429318303e-02  2.1643428142297302e-02  2.1570378152264966e-02  1.9969192121480208e-02  2.0005148325867965e-02  2.0046337108786637e-02  2.0074234344341631e-02  2.0012342601403617e-02  1.9740155100960749e-02  1.9692167321851386e-02  1.9781602993371943e-02  1.9882322982217294e-02  1.9237939508160391e-02  1.9237082615006153e-02  1.9296855296099064e-02  1.9170135124629673e-02  1.9587954723879735e-02  1.9467409764795135e-02  1.9522414324659211e-02  1.9577687087781948e-02  2.0366078061289431e-02  2.0584933413166858e-02  2.0536111807224713e-02  1.9265209004152972e-02  1.9475561775093464e-02  1.9609146346757599e-02  1.9541320617439097e-02  1.9557253956743625e-02  1.9422951599698861e-02  1.9764476549002524e-02  1.9934874219130944e-02  1.9827698458487964e-02  4.7361466321140097e-03  3.7817503815987148e-03  5.4810455913283790e-03  6.4609272677187482e-03  6.6756164997630778e-03  7.3222870086972177e-03  7.5656112096825186e-03  8.1763318691631046e-03  7.6459335970589263e-03  3.4313703829251434e-03  1.3092649496084314e-02  1.3870319135003589e-02  1.2433000258754679e-02  1.1522787709031557e-02  1.2210747424452818e-02  1.1239369586359349e-02  9.0252554983347253e-03  8.1645568815549002e-03  8.6664087595346075e-03  7.8641940723889470e-03  8.6089865001801342e-03  1.0153465647725004e-02  1.0388538641613286e-02  1.1207672423659516e-02  1.1183294157213511e-02  1.0419494119115609e-02  9.3576325553115999e-03  1.3658428093424976e-02  1.3514955344170158e-02  1.2753313938582868e-02  1.2264948044422073e-02  1.3271586513103110e-02  1.2695052764614528e-02  1.3898479537775843e-02  1.8189672563512296e-02  1.8197269609545826e-02  1.8349248750659342e-02  1.8341558020105189e-02  1.7868642727971173e-02  1.6910232445223189e-02  1.7014715822636667e-02  1.6794355846178704e-02  1.7610194071727776e-02  1.9661447320707813e-02  1.9032578908646264e-02  1.9123073878031187e-02  1.9100082083157392e-02  1.8874325202466059e-02  1.8852616009943823e-02  1.8322838790514641e-02  1.8403187042357768e-02  1.8443560448368420e-02  1.8324942958482967e-02  1.8375154468813420e-02  1.8439758261710917e-02  1.8260615608761518e-02  1.9037059975529604e-02  1.9094292612631684e-02  1.9219052793279352e-02  1.9334679798018527e-02  1.8659199621458483e-02  1.8356382302381100e-02  1.8207717008557354e-02  1.8587418256699191e-02  1.8754628015706012e-02  1.8625040312483212e-02  1.8647243681938666e-02  1.8490156732720496e-02  1.8679582226848193e-02  1.8841295212351658e-02  1.8672504675259265e-02  1.9008423601502872e-02  1.8662139341271554e-02  1.8512427908872059e-02  1.8813252244695825e-02  1.8659087228238988e-02  1.9074734199406682e-02  1.9142739175568236e-02  1.8831208081541075e-02  1.6877884255580528e-02  1.6885326220418748e-02  1.6792381528098626e-02  1.6772544150294721e-02  1.7181614762669353e-02  1.7112118296358052e-02  1.7075433763010364e-02  1.7135765336152430e-02  1.6913910235789819e-02  1.7030988517935046e-02  1.7223990063242541e-02  1.6628644928255578e-02  1.6804623339354369e-02  1.6536337670379282e-02  1.6472218977048803e-02  1.6358762002650622e-02  1.6624361606719429e-02  1.6669708145972420e-02  1.4164111124903286e-02  1.3592339712200559e-02  1.3819861300841584e-02  1.4069620302327243e-02  1.4624968879143926e-02  1.7967923368830845e-02  1.7880923096323133e-02  1.7705650684140838e-02  1.6741518115895162e-02  1.6663427932683095e-02  1.6541897849220201e-02  1.6661215344763992e-02  1.6492070071335945e-02  1.6680532131706702e-02  6.7230447150867720e-03  6.6202455017352578e-03  6.5739495275636897e-03  6.6619128480569665e-03  6.6292216638999110e-03  6.6063505219134322e-03  1.3398905090755026e-02  1.3696262520032259e-02  1.3894801146740873e-02  1.3210672683438195e-02  1.3619821421379552e-02  1.6022570323254819e-02  1.6028709932461475e-02  1.5750461656858630e-02  1.7069448667414892e-02  1.7149959782636750e-02  1.8113638002074606e-02  2.4616335311551576e-02  2.3515267887504659e-02  2.4840883673310193e-02  2.3705648270024565e-02  2.5370276495297165e-02  2.4305672640584614e-02  2.4388772187260228e-02  2.0661008380185353e-02  2.0854591871569832e-02  2.0951981782861943e-02  1.4752356883767375e-02  1.4795433802471898e-02  1.4959818934967737e-02  1.4422330000595012e-02  1.4438869847378267e-02  1.4311534031712397e-02  1.4226006739254980e-02  1.4177910445648615e-02  6.8308430676613189e-03  7.7092325221894530e-03  7.2260855339553948e-03  7.4676024699430700e-03  1.8721646437620299e-02  1.8667911741844175e-02  1.9403587479118474e-02  1.8820549085174568e-02  1.7983894659105486e-02  1.7938148612799042e-02  1.8854035167537236e-02  1.9846143413508099e-02  1.8844287336709880e-02  1.7509600382570940e-02  1.7721414813638179e-02  1.9039289120486733e-02  1.6107430076377008e-02  1.1101289501020661e-02  1.0209450090461137e-02  1.0343142009683590e-02  1.4752201157178102e-02  1.4702633697681959e-02  1.4103827687055936e-02  6.9180573349326598e-03  7.0896246025557060e-03  7.1700050479053899e-03  7.3508163555245053e-03  6.8013487104452656e-03  6.7363728457498964e-03  7.3984212522300785e-03  7.2074394761910427e-03  7.9839614467875370e-03  8.0846961232782164e-03  8.4879307172771468e-03  9.2987240502089823e-03  9.0282939531970696e-03  8.2530664850856122e-03  9.4813432814351648e-03  1.2227940237188199e-02  1.2596681958308584e-02  1.2233801846123953e-02  1.1939834522027298e-02  1.2067947427802657e-02  1.3015564760939151e-02  1.2260769362342733e-02  1.2067777236563380e-02  1.2649024961859819e-02  1.9191883044015836e-02  1.9116581231167235e-02  1.9074322342974456e-02  1.9131079237873268e-02  1.9126691849364937e-02  1.9025355409120429e-02  1.9003339128982666e-02  1.9121502354095508e-02  1.9080672630788612e-02  1.9050463600980692e-02  1.9049511482632460e-02  1.9089659215556977e-02  2.0196917403218335e-02  2.0055960124834328e-02  2.0060422802002681e-02  2.0182215963510431e-02  2.0170389137221332e-02  2.0065856358045218e-02  2.0268218583834968e-02  2.0199924254474203e-02  2.0370903364419685e-02  2.0328272630508317e-02  2.1160328702924516e-02  2.0451240198392086e-02  2.0498301936288068e-02  2.0290088800527656e-02  2.0541118485940622e-02  2.0709093411906257e-02  1.9260908122007810e-02  1.9391258329779861e-02  2.2510360453869463e-02  2.2688911883866490e-02  2.2247958637610761e-02  2.2292679536067585e-02  2.2626061258902149e-02  2.2604289080474418e-02  2.2975713112123927e-02  2.2967266728008969e-02  2.2299649825718304e-02  2.2071260619284723e-02  2.2259974443789965e-02  2.5616388060986046e-02  2.4617586091709980e-02  2.4616929735674701e-02  2.9879044084430281e-03  2.7440490414460884e-02  2.7459961816319281e-02  2.8615400302091275e-02  3.9758455846280218e-03  4.2149626286493297e-03  3.4565126797269910e-03  4.4325848094900460e-03  4.4305742852513525e-03  3.3391126453557816e-02  3.3890218403145364e-02  3.3577733612922545e-02  3.3672442213390004e-02  3.3786863642581606e-02  3.3094410812340241e-02  3.3299182127725514e-02  2.8089487221075061e-02  2.9139351330020588e-02  2.8456545820879371e-02  3.0166107942344460e-02  2.9801573940340796e-02  2.9593913065884221e-02  3.1814495746345151e-02  3.2538717064763412e-02  3.2311718350837133e-02  3.2332934677402163e-02  3.1738423464213746e-02  3.1443216168345091e-02  3.1973791456557550e-02  2.9789927119470344e-02  3.0443585196543655e-02  2.9330239544740781e-02  2.8099596578634201e-02  2.8800010991856077e-02  2.7542231241371631e-02  3.1221192900667185e-02  3.1546692926867202e-02  3.1004950604396998e-02  2.9622980304880347e-02  3.0830990721904105e-02  1.5514256136209879e-02  1.5607714776420305e-02  1.5270871662796838e-02  1.8850747780380834e-02  1.8930560060322048e-02  1.9937880288009840e-02  1.8004589564709496e-02  1.4194589843868574e-02  1.4255390667681701e-02  1.4170192678535306e-02  1.4323510349470492e-02  1.4213356676265226e-02  1.4066037189040573e-02  1.6478028453433609e-02  1.7110681108175187e-02  1.6441089964915206e-02  1.5934257986726395e-02  1.6540337216336826e-02  1.4999521836019419e-02  1.4875244141716339e-02  1.4584802227110715e-02  1.5861615930234673e-02  1.5373568328256646e-02  1.3998720533261757e-02  1.4231153927130449e-02  1.3972639832233583e-02  1.4282895580834858e-02  1.4096187377862847e-02  1.3878516820315349e-02  1.4423648350187973e-02  1.4221755929721193e-02  1.4454827605292547e-02  1.4695309432705576e-02  1.4187238535755957e-02  1.4233619950778521e-02  1.5760242435687317e-02  1.5933296451933761e-02  3.2689561546456532e-02  3.3684791973153161e-02  3.3903084730705323e-02  3.3869816870459028e-02  3.3382754460888141e-02  3.3993293074007308e-02  3.4025744034595143e-02  3.3896025251201653e-02  3.3644887036700391e-02  3.3663114681043931e-02  3.3741291285776243e-02  3.2939679025522250e-02  3.3258026456020759e-02  3.2924559021913186e-02  3.3204528572750060e-02  3.1820366721184261e-02  3.1266420608567845e-02  2.8162307139388158e-02  2.7332715230264558e-02  2.7233512378954307e-02  3.2535606604231035e-02  3.2858033082892299e-02  3.2728101564630512e-02  3.3388574318373693e-02  7.5729635281634455e-03  2.2544115235734328e-02  2.2455798159624535e-02  2.2547015152309273e-02  2.2943838383511012e-02  2.2932562199296198e-02  2.2835611529867621e-02  2.2773530939720971e-02  2.1775958446448876e-02  2.1835839537058525e-02  2.1667430911822865e-02  2.1599756664816120e-02  2.1707750277559393e-02  2.1879174584822917e-02  2.1361692880223562e-02  2.1422635751252712e-02  2.1226054939902275e-02  2.1550291562979735e-02  2.1284279063175378e-02  2.1474523248228048e-02  2.1077992404981420e-02  2.1022557908460776e-02  2.6366068061889108e-02  2.6298509114121623e-02  2.5143256364057363e-02  2.9674666310342945e-02  2.8647870741756804e-02  2.9631600456477065e-02  2.9569187397427706e-02  3.0537508532973986e-02  2.8624763652499559e-02  3.2017683755370570e-02  3.1160502558556853e-02  3.1347787543700344e-02  1.9644247577007442e-02  1.9098908226538279e-02  1.9878565431685258e-02  2.5057319294475154e-02  2.5543870452271081e-02  2.6320538010451543e-02  2.5509566095151138e-02  2.5303535191567122e-02  2.5558333459152326e-02  2.5850300943388999e-02  2.5716903968391821e-02  2.6090887447711542e-02  2.5688873536536080e-02  2.5587242724319344e-02  2.5895984355088178e-02  2.9485364325164187e-02  2.9931690987566931e-02  2.9626801404190585e-02  2.9203259923294294e-02  2.9076420447510843e-02  2.8897636802154691e-02  2.8529588734684620e-02  2.8438565064896667e-02  2.7880254708242555e-02  2.7627549003266041e-02  2.7417306951938364e-02  2.7159737178502692e-02  2.7205602255554146e-02  2.7620797249719494e-02  2.7691027117329101e-02  2.7265675347507810e-02  2.3740547870731637e-02  2.3963790926495712e-02  2.3688403407688449e-02  2.3893534234789359e-02  2.5167228134887719e-02  2.5671408788840427e-02  2.5086913516299356e-02  2.4710384014170434e-02  2.5238905565615533e-02  2.5406768685571901e-02  2.5419816963624681e-02  2.5522089665599729e-02  2.5669502645634890e-02  2.5678852245821407e-02  2.4448300674832179e-02  2.4915824231687055e-02  2.4827363273772319e-02  2.5276880943691796e-02  2.5293696234829084e-02  2.5268555901601014e-02  2.5589740023446727e-02  2.4960726107072489e-02  2.4687714862637870e-02  2.1007475115857741e-02  2.0882925903885775e-02  2.0721888905272896e-02  1.4529451838319475e-02  1.4500773721661538e-02  1.4270362554263859e-02  2.1579282341044781e-02  2.1615508260505435e-02  2.1934343186735990e-02  2.2045258483574599e-02  2.0589206058602403e-02  2.0525090657228431e-02  2.0440955264747443e-02  2.0627311398450296e-02  2.0720017024760531e-02  1.9454292707802662e-02  1.9751545161241422e-02  2.1260832228554970e-02  2.1165441635966599e-02  2.1288201371720619e-02  2.0617251915617852e-02  2.0804009765223241e-02  2.0669423412882859e-02  2.0850517059556078e-02  2.0701418001924807e-02  2.0851216144623902e-02  2.0091648685895826e-02  2.0253816243824312e-02  2.0208899613912801e-02  1.9999800665768921e-02  2.0384234224876011e-02  2.0153553421634066e-02  2.0526738965929173e-02  2.0663932619287492e-02  2.0489610706804686e-02  2.0643924828130013e-02  2.0398652011601001e-02  2.0528148064294538e-02  1.9738375699916606e-02  1.9868011630213903e-02  1.8313811897378345e-02  1.8556568801319010e-02  1.8314111380424589e-02  1.8085753527526727e-02  1.8752581822668483e-02  1.8477496502902216e-02  1.8774877395046581e-02  1.7296994854493215e-02  1.7565296084326745e-02  1.7217407474819174e-02  1.7917597530802489e-02  1.7618777014128142e-02  1.8494035344145725e-02  1.8756818612871054e-02  1.8739716061457842e-02  1.8952148895082552e-02  1.9450864919696532e-02  1.7864470029109864e-02  1.7792735966232862e-02  2.0018189384376855e-02  1.9951467064681698e-02  1.9389519645358424e-02  1.9710555327229044e-02  1.9483235904052491e-02  1.4236554648369714e-02  1.4498437463953847e-02  1.9830137274213660e-02  2.0022026570186639e-02  1.9606385967992017e-02  2.0805874644315416e-02  2.0693891127396564e-02  2.0568234272195823e-02  2.1401211795002189e-02  2.1198683303099066e-02  2.1269091239357187e-02  2.0313480801363054e-02  2.0632706607095739e-02  2.0424020279905683e-02  2.0498959993254313e-02  2.1999229063772104e-02  2.2057618110160326e-02  2.1771408969015763e-02  2.1796129031882994e-02  2.1531292703758004e-02  2.0041641390750285e-02  2.0085694456528375e-02  2.0077223558958013e-02  2.0005237715331425e-02  2.0096744263883953e-02  1.9388419830733451e-02  1.9351650869260148e-02  1.9285495919542730e-02  1.9216315143941669e-02  1.9381883335816138e-02  1.9352932991887412e-02  1.9406929610127931e-02  2.0374544007909175e-02  2.0417217429463699e-02  2.0487253510487202e-02  2.0310417096930787e-02  2.0218826770769315e-02  2.0143765033240901e-02  2.0168406690334796e-02  2.0094636328612220e-02  2.0099804249954532e-02  2.0189141075460191e-02  2.0175155901039445e-02  2.0269959234275652e-02  2.0245754277428894e-02  2.0100757055609257e-02  2.0283968391628111e-02  2.0352928229706545e-02  2.0433777497580630e-02  2.0318494591100182e-02  2.0554123476030944e-02  2.0439242360552053e-02  2.0335891475292866e-02  1.9915949603536209e-02  1.9901532553670397e-02  1.9639241753115381e-02  2.1812588237169160e-02  2.1872255682626532e-02  2.1739708892479420e-02  2.1670328917388924e-02  2.0484315498380833e-02  2.0701281256161348e-02  2.0308213630491765e-02  2.0451006159705173e-02  2.0429184979644206e-02  2.0177778146403206e-02  2.0178627716001343e-02  2.0477198442988304e-02  2.0572607431150559e-02  2.0744099833288301e-02  2.0951420667421446e-02  2.0856869407980840e-02  2.0606142979225694e-02  2.0558384631452119e-02  2.0516951515494045e-02  2.0692230258913809e-02  1.9829980402659018e-02  1.9712330822697601e-02  1.9795477706325525e-02  1.9878215980579494e-02  1.9752477719960852e-02  1.9615624718116686e-02  1.9707392615826321e-02  1.9596840528630578e-02  1.9924008000617287e-02  1.9936955479567371e-02  1.9938234669265399e-02  1.9704300550988693e-02  1.9502978784412681e-02  1.9979288065583176e-02  1.9908010360059732e-02  1.9841315409470761e-02  2.0001696496872619e-02  1.9307586236326529e-02  1.9265901883064110e-02  1.9361811001522504e-02  1.9708753307067159e-02  1.9664831897387946e-02  1.9835970408873038e-02  3.2049141980544562e-03  2.619427960