<?xml version="1.0"?>
<VTKFile type="UnstructuredGrid"  version="0.1"  >
<UnstructuredGrid>
<Piece  NumberOfPoints="6340" NumberOfCells="12376">
<Points>
<DataArray  type="Float64"  NumberOfComponents="3"  format="ascii">-0.01942699961364269 0.02081100083887577 0  -0.02005299925804138 0.02145599946379662 0  -0.02029000036418438 0.02047999948263168 0  -0.02078899927437305 0.0211970005184412 0  -0.01966699957847595 0.01989500038325787 0  -0.01925599947571754 0.02168300002813339 0  -0.01970599964261055 0.02240700088441372 0  -0.0192479994148016 0.02322299964725971 0  -0.0201249998062849 0.02312799915671349 0  -0.01880699954926968 0.02240700088441372 0  -0.009111000224947929 0.01768800057470798 0  -0.009708999656140804 0.01859699934720993 0  -0.01004400011152029 0.0176599994301796 0  -0.01064800005406141 0.01861000061035156 0  -0.0244549997150898 0.07331400364637375 0  -0.02534699998795986 0.07366500049829483 0  -0.02551200054585934 0.07289399951696396 0  -0.02494800090789795 0.06694000214338303 0  -0.02554799988865852 0.06759800016880035 0  -0.02573500014841557 0.0667169988155365 0  -0.02644000016152859 0.0670899972319603 0  -0.01217699982225895 0.08525600284337997 0  -0.01303000003099442 0.08508999645709991 0  -0.01246399991214275 0.08447899669408798 0  -0.01879999972879887 0.07941599935293198 0  -0.01786299981176853 0.07962600141763687 0  -0.01836399920284748 0.08027499914169312 0  -0.01830600015819073 0.0787620022892952 0  -0.02167399972677231 0.02448200061917305 0  -0.02085400000214577 0.02463899925351143 0  -0.02119000069797039 0.02536699920892715 0  -0.02148599922657013 0.02610599994659424 0  -0.02202500030398369 0.02521900087594986 0  -0.0203620009124279 0.02552999928593636 0  -0.02001399919390678 0.02474699914455414 0  -0.01916199922561646 0.0248390007764101 0  -0.01952400058507919 0.02562399953603745 0  -0.02133399993181229 0.02373499982059002 0  -0.02222900092601776 0.02362200058996677 0  -0.0217099990695715 0.02252000011503696 0  -0.0212629996240139 0.02187700010836124 0  -0.02097400091588497 0.02294700033962727 0  -0.02051199972629547 0.02220899984240532 0  -0.01632500067353249 0.02209600061178207 0  -0.0168249998241663 0.02122100070118904 0  -0.01589900068938732 0.02119000069797039 0  -0.01718099974095821 0.02222000062465668 0  -0.01803700067102909 0.0222219992429018 0  -0.01756099984049797 0.02310100011527538 0  0.04164300113916397 0.07763899862766266 0  0.04127699881792068 0.07682400196790695 0  0.04256099835038185 0.07693199813365936 0  0.04489799961447716 0.08743999898433685 0  0.0456870011985302 0.08767999708652496 0  0.04458099976181984 0.088189996778965 0  0.02677500061690807 0.09640000015497208 0  0.02695300057530403 0.0956289991736412 0  0.02786399982869625 0.09589800238609314 0  0.0257750004529953 0.09686200320720673 0  0.02594500035047531 0.09593000262975693 0  -0.006870999932289124 0.0933929979801178 0  -0.005985999945551157 0.09360600262880325 0  -0.006570000201463699 0.09420300275087357 0  -0.005677000153809786 0.09442000091075897 0  -0.01772299967706203 0.09262199699878693 0  -0.01803500019013882 0.09196499735116959 0  -0.01704699918627739 0.09221500158309937 0  -0.01862400025129318 0.09264499694108963 0  -0.014487000182271 0.09829200059175491 0  -0.01474499981850386 0.09901899844408035 0  -0.01525400020182133 0.09829500317573547 0  -0.01054800022393465 0.09192600101232529 0  -0.009701999835669994 0.09208600223064423 0  -0.01028299983590841 0.09268999844789505 0  -0.01139799971133471 0.09177199751138687 0  -0.01081600040197372 0.09116899967193604 0  -0.01166499964892864 0.09101700037717819 0  -0.01398599985986948 0.09338899701833725 0  -0.01452699955552816 0.09396900236606598 0  -0.01486899983137846 0.09322000294923782 0  -0.01283300016075373 0.09221599996089935 0  -0.01370100025087595 0.09206300228834152 0  -0.01310900039970875 0.09146899729967117 0  0.01196799986064434 0.09042499959468842 0  0.01302099972963333 0.09030900150537491 0  0.01240899972617626 0.09105700254440308 0  0.007818000391125679 0.07794400304555893 0  0.008267000317573547 0.07714799791574478 0  0.008870000019669533 0.07782699912786484 0  -0.008870000019669533 0.01676999963819981 0  -0.008112999610602856 0.01693199947476387 0  -0.00967899989336729 0.01670599915087223 0  -0.01052299980074167 0.01663899980485439 0  -0.01391000021249056 0.01679999940097332 0  -0.01410400029271841 0.01791499927639961 0  -0.01469600014388561 0.01703899912536144 0  -0.01335300039499998 0.0176829993724823 0  -0.01334199961274862 0.01873300038278103 0  -0.01258600037544966 0.01781200058758259 0  -0.01280899997800589 0.0216860007494688 0  -0.01328799966722727 0.02074000053107738 0  -0.01242099981755018 0.02072999998927116 0  -0.01201799977570772 0.01982700079679489 0  -0.01147899962961674 0.02065300010144711 0  -0.01290199998766184 0.01974299922585487 0  -0.01368200033903122 0.02174999937415123 0  -0.01502600032836199 0.02103699930012226 0  -0.01542800012975931 0.02202199958264828 0  -0.01455600000917912 0.02188500016927719 0  -0.01013999991118908 0.01954199932515621 0  -0.01146300043910742 0.03077499940991402 0  -0.01195999979972839 0.02991800010204315 0  -0.01104800030589104 0.02981200069189072 0  -0.006442000158131123 0.02918699942529202 0  -0.006868000142276287 0.03017299994826317 0  -0.00736499996855855 0.02932400070130825 0  -0.00924300029873848 0.01954399980604649 0  -0.006972000002861023 0.018800999969244 0  -0.00787500012665987 0.01871000044047832 0  -0.007189999800175428 0.01795100048184395 0  -0.007294999901205301 0.01710600033402443 0  -0.006390000227838755 0.01730000041425228 0  0.04684200137853622 0.08396799862384796 0  0.04756800085306168 0.08345899730920792 0  0.04753699898719788 0.08448699861764908 0  0.04650599882006645 0.08470200002193451 0  0.01464799977838993 0.05778900161385536 0  0.01561299990862608 0.05757199972867966 0  0.01521500013768673 0.05850600078701973 0  0.02665900066494942 0.0414309985935688 0  0.02704500034451485 0.04034800082445145 0  0.02753500081598759 0.04099100083112717 0  0.02900700084865093 0.04520000144839287 0  0.02984100021421909 0.04442200064659119 0  0.03023600019514561 0.04509700089693069 0  0.02904600091278553 0.04858500137925148 0  0.02812300063669682 0.04878300055861473 0  0.02856599912047386 0.04780400171875954 0  0.02807299979031086 0.04707200080156326 0  0.02905100025236607 0.04682299867272377 0  0.02761399932205677 0.04803900048136711 0  0.02717900089919567 0.04900500178337097 0  0.02707899920642376 0.04733600094914436 0  0.0264929998666048 0.04666699841618538 0  0.0260819997638464 0.04758900031447411 0  0.02548700012266636 0.04691199958324432 0  0.0442890003323555 0.08618299663066864 0  0.04319699853658676 0.08630599826574326 0  0.04382200166583061 0.08556800335645676 0  0.04275399819016457 0.08566199988126755 0  0.005657999776303768 0.0228860005736351 0  0.006366000045090914 0.0233330000191927 0  0.00570600014179945 0.02398600056767464 0  0.006471999920904636 0.02432199940085411 0  0.02508600056171417 0.04783400148153305 0  0.02132900059223175 0.05038399994373322 0  0.02092899940907955 0.05131300166249275 0  0.02034999988973141 0.05060900002717972 0  0.0219080001115799 0.05108699947595596 0  0.02771699987351894 0.04975000023841858 0  0.01615099981427193 0.03389900177717209 0  0.01532499957829714 0.03379499912261963 0  0.01567599922418594 0.0328649990260601 0  0.01126999966800213 0.03946400061249733 0  0.01039899978786707 0.03948900103569031 0  0.01079399976879358 0.03856299817562103 0  0.009921999648213387 0.0385890007019043 0  0.00952799990773201 0.03951400145888329 0  0.009446999989449978 0.03768600150942802 0  0.0103169996291399 0.03766399994492531 0  0.01087599992752075 0.04039100185036659 0  -0.02632799930870533 0.06793300062417984 0  -0.02528100088238716 0.06842099875211716 0  -0.02622600086033344 0.06870300322771072 0  -0.02462800033390522 0.06783799827098846 0  -0.02426500059664249 0.06868000328540802 0  -0.02328000031411648 0.06893599778413773 0  -0.02374299988150597 0.06958600133657455 0  -0.02272400073707104 0.06831199675798416 0  -0.02231400087475777 0.06917499750852585 0  -0.02281400002539158 0.06981900334358215 0  -0.02651700004935265 0.06622099876403809 0  -0.01793400011956692 0.08112200349569321 0  -0.01886199973523617 0.08092000335454941 0  -0.01786299981176853 0.08917500078678131 0  -0.01872400008141994 0.08904699981212616 0  -0.01814999990165234 0.08843100070953369 0  -0.0190069992095232 0.08830700069665909 0  -0.018435999751091 0.08767999708652496 0  -0.01714600063860416 0.09151300042867661 0  -0.01632099971175194 0.09165000170469284 0  -0.01612400077283382 0.09236700087785721 0  -0.01332399994134903 0.08430299907922745 0  -0.01076599955558777 0.07893399894237518 0  -0.009832999669015408 0.07914400100708008 0  -0.01034600008279085 0.07978499680757523 0  -0.009970000013709068 0.08061599731445312 0  -0.009438999928534031 0.07998300343751907 0  -0.01453199982643127 0.07651799917221069 0  -0.01500799972563982 0.07562399655580521 0  -0.01406200043857098 0.07584500312805176 0  -0.01311600022017956 0.07606600224971771 0  -0.01358400005847216 0.0751739963889122 0  -0.01736499927937984 0.07897599786520004 0  -0.01688900031149387 0.07831099629402161 0  -0.01783699914813042 0.07809200137853622 0  -0.01878700032830238 0.07787500321865082 0  -0.02334400080144405 0.07046400010585785 0  -0.02386900037527084 0.07267700135707855 0  -0.02346399985253811 0.07354699820280075 0  -0.02250399999320507 0.02420499920845032 0  -0.02277000062167645 0.02476999908685684 0  -0.02294900082051754 0.02532500028610229 0  -0.02314300090074539 0.02592200040817261 0  -0.02228900045156479 0.02598999999463558 0  -0.01964299939572811 0.02397900074720383 0  -0.01878399960696697 0.02406099997460842 0  -0.02050700038671494 0.02386699989438057 0  -0.02196200005710125 0.02305500023066998 0  -0.01779299974441528 0.01838400028645992 0  -0.01741999946534634 0.01914500072598457 0  -0.01847999915480614 0.01878000050783157 0  -0.0170889999717474 0.01797899976372719 0  -0.01837299950420856 0.02320699952542782 0  -0.0
[...]
<PointData  Scalars="pressure"> 
<DataArray  type="Float64"  Name="pressure"  format="ascii">3.7332581450756908e-02  3.7554785279210016e-02  3.7364303155651937e-02  3.7571415723144562e-02  3.7175686686144266e-02  3.7489490333806719e-02  3.7718446121688863e-02  3.7856377612621304e-02  3.7942800159415320e-02  3.7590580882193456e-02  3.5466247419767602e-02  3.5646945671361632e-02  3.5508443118904685e-02  3.5691905011940195e-02  2.7803732738395006e-02  2.7677283479084235e-02  2.7981515915524533e-02  3.0764234116935754e-02  3.0573403537343589e-02  3.0747923067511715e-02  3.0672831058247804e-02  2.1182588714127683e-02  2.1780526446325006e-02  2.1143249605795607e-02  2.4109924493719924e-02  2.3644402914435030e-02  2.3922881974015948e-02  2.3858663767480172e-02  3.8396324299191063e-02  3.8370233799968630e-02  3.8552452470013654e-02  3.8718691670818157e-02  3.8564284890844458e-02  3.8536566098891431e-02  3.8325418685818916e-02  3.8279997639580662e-02  3.8515370387678848e-02  3.8210808664239121e-02  3.8243391283488380e-02  3.7964053054485213e-02  3.7779194272970787e-02  3.8000401481263393e-02  3.7781235610100453e-02  3.7161929784340408e-02  3.6996278706355162e-02  3.6853352673741437e-02  3.7311652767479594e-02  3.7433131508928026e-02  3.7615011815339994e-02  2.8103436355329088e-02  2.5929987094258821e-02  2.8009847022958424e-02  4.5789378300162893e-02  4.6123698734505718e-02  4.7146000548425736e-02  4.7934599965715585e-02  4.7009127391034237e-02  4.9469679721962811e-02  4.6370626694818333e-02  4.5329314029692556e-02  2.1349822418121941e-02  2.1043115366284129e-02  2.1693547285498004e-02  2.1491951962430006e-02  2.4617203426549977e-02  2.4686194838186001e-02  2.4598128909835471e-02  2.4568082798421601e-02  2.4445500775604676e-02  2.4317874424567724e-02  2.4339717650306684e-02  2.2421819573355404e-02  2.2081850244121574e-02  2.2567873985626118e-02  2.2773402213416016e-02  2.2303739180491042e-02  2.2695442076861388e-02  2.3969056262999160e-02  2.4167825574968990e-02  2.4181740241499741e-02  2.3454266398789638e-02  2.3722501155512499e-02  2.3410946515397262e-02  1.0524129384165415e-02  1.1501613099338961e-02  1.1883398353980942e-02  1.0432861084737961e-02  1.0867385181757207e-02  1.0920834488627684e-02  3.5485255195912002e-02  3.5510802119275528e-02  3.5486072405297990e-02  3.5501123017247692e-02  3.5880982762572851e-02  3.6011737702462965e-02  3.5999786430221760e-02  3.5861897282040957e-02  3.5998992561813402e-02  3.5814994254538386e-02  3.6700061008286905e-02  3.6434102988951271e-02  3.6363844974625602e-02  3.6079597777229418e-02  3.6290162536467635e-02  3.6139806070455041e-02  3.6777110376391205e-02  3.6697687218413794e-02  3.7030699407245141e-02  3.6896785228668884e-02  3.5897213468163519e-02  4.1012658758785042e-02  4.0531990661448941e-02  4.0562125498311861e-02  4.0178827665741219e-02  4.0689493548209700e-02  4.0318442519334960e-02  3.5899958356810965e-02  3.5817554323714716e-02  3.5726437164791479e-02  3.5569830099595447e-02  3.5578434883634477e-02  3.5639263088804371e-02  4.1101736504346474e-02  4.0924840471945369e-02  4.1846459798619527e-02  4.1847281534077914e-02  1.7747537799845416e-02  1.9359998294156768e-02  1.7826781737128317e-02  4.2266896713904593e-02  4.1954896494718792e-02  4.2226029813398867e-02  4.3659494194930017e-02  4.3429466147773890e-02  4.3780505538726304e-02  4.3784274557855718e-02  4.3243881280760531e-02  4.3586002520559240e-02  4.3362313064084237e-02  4.3783280277290594e-02  4.3028426539092425e-02  4.2533259889609418e-02  4.2771244365878799e-02  4.2465197177800437e-02  4.2027215211456172e-02  4.1717655043493999e-02  4.3591607004518008e-02  4.3600219663230688e-02  4.2437832300769800e-02  4.2293664262330666e-02  3.9480881110486921e-02  3.9578962505314653e-02  3.9621833651161155e-02  3.9734258595818410e-02  4.1122227325990558e-02  3.5304957287259423e-02  3.3973820199191151e-02  3.3854113023440519e-02  3.5479035151430423e-02  4.2750937455872072e-02  4.0038957311840616e-02  4.0058510248201055e-02  4.0119233298688925e-02  3.6190398423788545e-02  3.5703564104789899e-02  3.6904537054200666e-02  3.6471553977800386e-02  3.5191639147803974e-02  3.7220613979104852e-02  3.7575504658991031e-02  3.4920596590774192e-02  3.0470440437310443e-02  3.0343235082751427e-02  3.0196313814835500e-02  3.0418301968028461e-02  2.9968799701022127e-02  2.9586312151865937e-02  2.9366510835940614e-02  2.9747947441142328e-02  2.9148239486444232e-02  2.8983417036163882e-02  3.1145867878422509e-02  2.3780551851864708e-02  2.4173474595478407e-02  2.4581333691522649e-02  2.4761794639445837e-02  2.4607189553764518e-02  2.4771373320706953e-02  2.4619282080287727e-02  2.4590260228481219e-02  2.4400397159023660e-02  2.4387948153748534e-02  2.1723339723187698e-02  1.7836142813202178e-02  1.7021513709638347e-02  1.7712970748040392e-02  1.7577579904418689e-02  1.6858141304774903e-02  2.0987722120330048e-02  2.1381087120294955e-02  2.0409701060990788e-02  1.9501523251034474e-02  1.9809079244967751e-02  2.3330765472354492e-02  2.3000352253610714e-02  2.3604669664424708e-02  2.4166617165705683e-02  2.8822148235352119e-02  2.7893080263814200e-02  2.7397317500034636e-02  3.8384322703138296e-02  3.8502129792613249e-02  3.8610559150891281e-02  3.8718851349854873e-02  3.8721489092323730e-02  3.8095831969565931e-02  3.8030162317042648e-02  3.8160549988973030e-02  3.8103166026292115e-02  3.6628101559693767e-02  3.6688853297490040e-02  3.6804920513548937e-02  3.6464702182345474e-02  3.7744359949929959e-02  3.7506662254159780e-02  3.7746712181454312e-02  3.7836035307522831e-02  4.0936191259701799e-02  4.1404334640299877e-02  4.1283254773333722e-02  3.6635355171379003e-02  3.7353430575745944e-02  3.7763712076046993e-02  3.7773681884971141e-02  3.7355690902632396e-02  3.6957386393746218e-02  3.8188262602209623e-02  3.8620606120693478e-02  3.8638372494733640e-02  4.3397580795131417e-02  4.3616817234473360e-02  4.4385494012410924e-02  3.8824135097049982e-02  4.0237654854275988e-02  3.9922445822928379e-02  3.1440451155802032e-02  3.1298012179971454e-02  2.9984003300830120e-02  2.6133648251091105e-02  4.9239075849015337e-02  5.0340876272185753e-02  4.8454672858202284e-02  4.7390074515593288e-02  4.8556997146808195e-02  4.7872687605382318e-02  4.2108904039078618e-02  4.0971719492808610e-02  4.0722059830163741e-02  3.9620329717472612e-02  4.4777475176507549e-02  4.6285790140668380e-02  4.5967104949976308e-02  4.6455169484614367e-02  4.6130171190678498e-02  4.4867914153015533e-02  4.4812259984181028e-02  4.2745547463009903e-02  4.0930508940638100e-02  4.0160593788879602e-02  4.2846981482967818e-02  4.4457642591727672e-02  4.2527093834428042e-02  4.4605970394196448e-02  2.1947373180450005e-02  2.2452991178953073e-02  2.2262218827678124e-02  2.1716454365178064e-02  2.0631652451193326e-02  2.0710522058092377e-02  1.9948796514599441e-02  1.9738665898547617e-02  2.2092087202228161e-02  2.4537697700359469e-02  2.4312748982701037e-02  2.4373260608733661e-02  2.4459490425023135e-02  2.4384016546331298e-02  2.4426832179870118e-02  2.4332709516465104e-02  2.4421838000566413e-02  2.4274722226017655e-02  2.4174321951029466e-02  1.8180452451038873e-02  1.7934143766284712e-02  1.7191978157253700e-02  2.0893306151719453e-02  2.1562401202068669e-02  2.1489520782155009e-02  2.3706736516513560e-02  2.1913743166650474e-02  2.2719317856418664e-02  2.2882902975581671e-02  2.4231790585575175e-02  2.4191315041900488e-02  2.4053448103125992e-02  2.3826025090666596e-02  2.3897831626926904e-02  2.2868190417945734e-02  2.3171444250291579e-02  2.3234687013757534e-02  2.3103894965879633e-02  2.3548919573349539e-02  2.3325298745752805e-02  2.3766898428731080e-02  2.4480763982676138e-02  2.4331740220339806e-02  2.3974746145626634e-02  2.3498467122556120e-02  2.4153210425601507e-02  2.3794009557364378e-02  2.3630632813726397e-02  2.3155715301674793e-02  2.3743842721287788e-02  2.3349375454714948e-02  2.3808748298591326e-02  2.4123292557024965e-02  2.4972911829416852e-02  2.5082403823252813e-02  2.4933934339699090e-02  2.5033102206111917e-02  2.5079789589548811e-02  2.5145977019763146e-02  2.5085914307920430e-02  2.5140490265095142e-02  2.5109753642909481e-02  2.5160646232724751e-02  3.3275329777879378e-02  3.3639531106009216e-02  3.5048500020205084e-02  3.1986177443573426e-02  3.1625094880334562e-02  2.5034005461365527e-02  2.4957307813023501e-02  2.5187741224088719e-02  2.4632483395028854e-02  2.4251677348239471e-02  2.4121326400446383e-02  2.2913517437978464e-02  2.2590208206147940e-02  2.3421814483758283e-02  1.6399864029146047e-02  1.7659677494859770e-02  1.5994353433336959e-02  1.4786565591276082e-02  1.4397599408662171e-02  1.5713933618729452e-02  1.1294492445468450e-02  1.1122350194125441e-02  1.1729145178243777e-02  1.0751827278188450e-02  1.1877502574833450e-02  1.5076972055858732e-02  1.5428396045970794e-02  1.4728345098027149e-02  2.1012565754290981e-02  2.1024013558075500e-02  2.2709374977469127e-02  3.2882995609519849e-02  3.1233280089249187e-02  3.2915614833146895e-02  3.1249191749531710e-02  3.2306991288790138e-02  3.0878569935312572e-02  3.0946900106416410e-02  4.1478784677953559e-02  4.1848425175122245e-02  4.1907289853130733e-02  6.6443631726970584e-03  6.6786298038639877e-03  8.2630840089326432e-03  5.5705978625020872e-03  6.9785349952957987e-03  5.8308690228681750e-03  5.0780257233544665e-03  6.1064151049453549e-03  1.8040344287709585e-02  1.9022134567797326e-02  1.8500402962867840e-02  1.7449402726944747e-02  2.3221308323421834e-02  2.3127615990888487e-02  2.4274462546663898e-02  2.3308364695035964e-02  2.2079967299323999e-02  2.1967513143458659e-02  2.3291358151732458e-02  2.4948959178729968e-02  2.3193625809537637e-02  1.9915814206547363e-02  2.0596880258715051e-02  2.1957342703630995e-02  1.8841996306440349e-02  1.2772472034102329e-02  1.1776586847633743e-02  1.3257324914184042e-02  1.7077358366214341e-02  1.5966699952420622e-02  1.5511985303643842e-02  1.2282870443553931e-02  1.0895967559326522e-02  1.1470233255867601e-02  1.0168252319912335e-02  1.2889512229324773e-02  1.3258352747915723e-02  9.6614895373786785e-03  1.0488336206173406e-02  1.0254719274544896e-02  1.2940622218447058e-02  1.6230891529029266e-02  1.6796112294793455e-02  1.5002821519217745e-02  1.4520049550806678e-02  1.2471142696076059e-02  1.0844699734320902e-02  1.1439691888440427e-02  1.0374282905474937e-02  1.0258160496497630e-02  9.8269993359819882e-03  1.1351933970060894e-02  1.2694589939069502e-02  1.1985106621271273e-02  1.2678245502104300e-02  3.6558202949415752e-02  3.6280877124041683e-02  3.6137117126862163e-02  3.6295423049949753e-02  3.6241642834881245e-02  3.5756205795997573e-02  3.5712696248339421e-02  3.5859530508418745e-02  3.5722333350378152e-02  3.5615920252852977e-02  3.5535958136716908e-02  3.5527223155486592e-02  4.0457009177261909e-02  4.0041686784789594e-02  3.9996172499375343e-02  4.0367925501505794e-02  4.0073215494921967e-02  3.9578128765649409e-02  4.0047267602339842e-02  3.9539639881648811e-02  3.9991948111675418e-02  3.9487485097111009e-02  4.0524967271269668e-02  3.7926110115577463e-02  3.8216961430549146e-02  3.7860732199475854e-02  3.8544324609499449e-02  3.8558963029868804e-02  3.5650463473534247e-02  3.5955616286892242e-02  3.1287955348615046e-02  3.1205196652038837e-02  3.1150067679430807e-02  3.1164747533426643e-02  3.1100891088580246e-02  3.0602221195255522e-02  3.2503997923686419e-02  3.1975187856099423e-02  3.2435858143249528e-02  3.1424696153615858e-02  3.2900543799079564e-02  3.3994434379835403e-02  3.1841005891478556e-02  3.2539293390379039e-02  2.4432498076028774e-02  3.7104721187365408e-02  3.7384333949574786e-02  3.8331740455893389e-02  4.0110891604719819e-02  3.6855352168043046e-02  3.7650569747391900e-02  3.8279391727764345e-02  3.9073557954294756e-02  4.4391361023736635e-02  4.4826583836549451e-02  4.4302569808924983e-02  4.4841330237994297e-02  4.4575164002659817e-02  4.4097263115197571e-02  4.4201131494945867e-02  3.8345725003349485e-02  3.9799617065545294e-02  3.8865405609295418e-02  4.0975576889843865e-02  4.0586515689575178e-02  4.0251029870541050e-02  4.2229491313550964e-02  4.2954468294350456e-02  4.3032380770477392e-02  4.3326662064217605e-02  4.2746951271939705e-02  4.2366229838390008e-02  4.2822644793565526e-02  4.0014965706628124e-02  4.1035891214308784e-02  3.9690625750984768e-02  3.8179451742791880e-02  3.9163746027178939e-02  3.7566643924524398e-02  4.1882633873170663e-02  4.1995726049545407e-02  4.1412150500682775e-02  3.9533235036444327e-02  4.1109856764092234e-02  1.5900021242344662e-02  1.5477339350314777e-02  1.4969562979332312e-02  2.4382692378877229e-02  2.4461727043893777e-02  2.6120334141545101e-02  2.2737068460644501e-02  6.8200942722519350e-03  6.6789854592530576e-03  6.0095041917033118e-03  7.5448602811842638e-03  7.6299582480486294e-03  7.0034328045884553e-03  1.5176954235709979e-02  1.6211487865224299e-02  1.5439934600165683e-02  1.4181635760194568e-02  1.5013675961176021e-02  1.2266408083209241e-02  1.2389277286210233e-02  1.1275264554937180e-02  1.4362353040653888e-02  1.3298492236518047e-02  1.1347824734497004e-02  1.1025742555822622e-02  1.0373563740091359e-02  1.1953105730735082e-02  1.2396456717729227e-02  1.1882340295055444e-02  9.1975448477708763e-03  9.2779569551591362e-03  1.0018903871449200e-02  2.1038417310800292e-02  2.1537246196449079e-02  2.1018352311902647e-02  1.5284933382044796e-02  1.6048189966908769e-02  4.2517576154152581e-02  4.4170571048001699e-02  4.4273063951893885e-02  4.4456571860882248e-02  4.3966225227862935e-02  4.3885511658876580e-02  4.4096837688364907e-02  4.4041178296387568e-02  4.3173671839900736e-02  4.3558175388913434e-02  4.3997081697826804e-02  4.2549229988500512e-02  4.2860728825756082e-02  4.2415815571155084e-02  4.2766112146006181e-02  4.0837126857041384e-02  4.0082598231856593e-02  3.6150164272638508e-02  3.4993103398580305e-02  3.4959593979275297e-02  4.2271703598726416e-02  4.2611007537807992e-02  4.2296320590104977e-02  4.3083524454972585e-02  4.1201249193173646e-02  3.9860966720900490e-02  3.9712376032932019e-02  3.9777692363381412e-02  3.9968560313341249e-02  4.0026230784516836e-02  3.9904741266450640e-02  3.9920268665192986e-02  3.9487620273566226e-02  3.9613760572342054e-02  3.9416709744592687e-02  3.9274531995058468e-02  3.9367031339671364e-02  3.9557893327684515e-02  3.9078266855914215e-02  3.9276702140082470e-02  3.8989824256162743e-02  3.9342541079920211e-02  3.9221834036670782e-02  3.9499525646918492e-02  3.8922190409621089e-02  3.8681827140578558e-02  3.4108552904795753e-02  3.4247875595922309e-02  3.2644151692082256e-02  3.8348360299292061e-02  3.6916968290110590e-02  3.8134401269321432e-02  3.7922364611101281e-02  3.9177406285593713e-02  3.6749116173139071e-02  4.2088267642388814e-02  4.1240349168221384e-02  4.1066990447280557e-02  2.4813312106157469e-02  2.3889262458152153e-02  2.5377914337378769e-02  3.3938119126336146e-02  3.4669520064968352e-02  3.5804077139833621e-02  4.0128619682066373e-02  4.0081529101318139e-02  4.0057228834542664e-02  4.0092540894099270e-02  4.0117503602448770e-02  4.0080526309536610e-02  3.9938445575840434e-02  4.0084272851864076e-02  3.9938839853052986e-02  4.0697857501021110e-02  4.0860591806017192e-02  4.0841807113556519e-02  4.0676634258916149e-02  4.0531152183631354e-02  4.0459638357278137e-02  4.0254227098403830e-02  4.0364329535829239e-02  4.0136990499074862e-02  4.0171287013626024e-02  4.0094374498398901e-02  4.0026350960278803e-02  4.0140852782097690e-02  4.0177427400959219e-02  4.0117353342602642e-02  4.0077663131947709e-02  3.9215193803428659e-02  3.8791491882245732e-02  3.8612374295450794e-02  3.8026587849798128e-02  3.2995860903919198e-02  3.3869450848683855e-02  3.2531182136417466e-02  3.2146491992096932e-02  3.3536209216471893e-02  4.0107591143813882e-02  3.7305436151359041e-02  3.6658945407422441e-02  3.4831016555878648e-02  3.4312350512254022e-02  3.1969865744343809e-02  3.3427687437562553e-02  3.2751655489219073e-02  3.4126375184242358e-02  3.4779284370411730e-02  3.5467040238655087e-02  3.6009871129912385e-02  3.4148755794887686e-02  3.4367775225838469e-02  2.7138093464691610e-02  2.7066204276727578e-02  2.6202829029963213e-02  3.5228364202624166e-03  3.0972490020009860e-03  2.2028222741761819e-03  2.8368924254937360e-02  2.8238153763519708e-02  2.9667078199987845e-02  3.0561216702296196e-02  2.3928106084505484e-02  2.3594375902246754e-02  2.3604919661780917e-02  2.4208099377474899e-02  2.4206556387490055e-02  2.0652132027978363e-02  2.1492289159739924e-02  2.4873822032373562e-02  2.4829757789712321e-02  2.4830017222224211e-02  2.3461943399559454e-02  2.4213419186482208e-02  2.3930780843608175e-02  2.4439980785837839e-02  2.3690597629160117e-02  2.4071939470831277e-02  2.4529399747913121e-02  2.4695016367694479e-02  2.4591117391511531e-02  2.4723808234872743e-02  2.4733981043362347e-02  2.4738663624439654e-02  2.4731099900311485e-02  2.4744822726036626e-02  2.4662550739176902e-02  2.4698670973597934e-02  2.4436048243522027e-02  2.4437806453288167e-02  2.1831219482402690e-02  2.4701277394875275e-02  1.6699331151001785e-02  1.7518470154918673e-02  1.6587347634407765e-02  1.5813846027441410e-02  1.8296354376502764e-02  1.7479502269250286e-02  1.8239805814534847e-02  1.4323627227715522e-02  1.5070001770234764e-02  1.4412020857087798e-02  1.5845866732324597e-02  1.5033007093786629e-02  1.7387369452450084e-02  1.8319918929629808e-02  1.8417567976673137e-02  1.9121102882574646e-02  2.0463260958081951e-02  1.5926448288986331e-02  1.6119305886232393e-02  2.2245272920890815e-02  2.1941534610300642e-02  2.0841307105198614e-02  2.1785733959557373e-02  2.1286759844462402e-02  1.9820461498066197e-03  3.0927390280653180e-03  2.2324040797191989e-02  2.2754192208805066e-02  2.1779723151314843e-02  2.5202903033603254e-02  2.5065295850896879e-02  2.4461009372522532e-02  2.7832220135553976e-02  2.7185916757354569e-02  2.7170670228958652e-02  2.2732384393259582e-02  2.3937529811287217e-02  2.3325869265299282e-02  2.3680656572422451e-02  2.8121064189390393e-02  2.8290451519377431e-02  2.7215080976891962e-02  2.6955809920177078e-02  2.7132441699295826e-02  3.8861061766073103e-02  3.8827185481661225e-02  3.8978996076145897e-02  3.8994867827706628e-02  3.8917968021864674e-02  3.7129707847883435e-02  3.6985663469700031e-02  3.6871920956371401e-02  3.6642533246177937e-02  3.7162155084830235e-02  3.7063377764571637e-02  3.7377966506876185e-02  3.9464222473943739e-02  3.9620036774392187e-02  3.9528977848538441e-02  3.9509414659695097e-02  3.9397586569805063e-02  3.9288343622034899e-02  3.9376124686377779e-02  3.9512608231384638e-02  3.9622788369450268e-02  3.9818431734877674e-02  3.9678352754112328e-02  3.9960997286438579e-02  3.9784444715931920e-02  3.9414899275783989e-02  4.0143266717688031e-02  4.0044288153733690e-02  4.0069078219467411e-02  3.9842343554120460e-02  3.9385123092392872e-02  3.9374795021558863e-02  3.9343789260531808e-02  3.8727548740114290e-02  3.8728222771553238e-02  3.8097456800492063e-02  3.5810634602406237e-02  3.5028047688422728e-02  3.5104408508817297e-02  3.5810101450059445e-02  4.1123914098672047e-02  4.1553555566880875e-02  4.0512271066668527e-02  4.0925897812236593e-02  4.0714231535003233e-02  4.0110346241296155e-02  4.0245287358455221e-02  4.0311146235880557e-02  4.0296889240924005e-02  4.0515424158796415e-02  4.0708436438962756e-02  4.0378190398157862e-02  4.1094060755463686e-02  4.0833780569748984e-02  4.0568859488088055e-02  4.0874263429633878e-02  3.8733056755989849e-02  3.8396985788932053e-02  3.8731293302644722e-02  3.9096445027381931e-02  3.8717686385059152e-02  3.8215033786260608e-02  3.8669713952503931e-02  3.8238384938098863e-02  3.9570997283200543e-02  3.9531426800029870e-02  3.9592315920555496e-02  3.8688268908548692e-02  3.7797707953336611e-02  3.9593574649049633e-02  3.9113088272956412e-02  3.9122812805906015e-02  3.9089106271784711e-02  3.6594298473514031e-02  3.6247210649924137e-02  3.6971866800303982e-02  3.7768588989116454e-02  3.7373559494579614e-02  3.7775128002286829e-02  4.2825827243968259e-02  4.266324948