<?xml version="1.0"?>
<VTKFile type="UnstructuredGrid"  version="0.1"  >
<UnstructuredGrid>
<Piece  NumberOfPoints="6340" NumberOfCells="12376">
<Points>
<DataArray  type="Float64"  NumberOfComponents="3"  format="ascii">-0.01915800012648106 0.02052100002765656 0  -0.01981000043451786 0.02112999930977821 0  -0.0200399998575449 0.0201600007712841 0  -0.02055300027132034 0.02083499915897846 0  -0.01938899978995323 0.01960599981248379 0  -0.01899700053036213 0.02139000035822392 0  -0.01946800015866756 0.02208299934864044 0  -0.01901300065219402 0.02291000075638294 0  -0.0198999997228384 0.02276699990034103 0  -0.01854700036346912 0.02212299965322018 0  -0.00825399998575449 0.01786299981176853 0  -0.008917000144720078 0.01873099990189075 0  -0.009247999638319016 0.01779000088572502 0  -0.009917999617755413 0.01869799941778183 0  -0.02559700049459934 0.07142800092697144 0  -0.02654499933123589 0.0717179998755455 0  -0.02668200060725212 0.07094000279903412 0  -0.02579100057482719 0.06506200134754181 0  -0.02645399980247021 0.06567300111055374 0  -0.02660300023853779 0.06478799879550934 0  -0.02735999971628189 0.06510999798774719 0  -0.01334800012409687 0.08384600281715393 0  -0.01420800015330315 0.08364299684762955 0  -0.01357899978756905 0.08309900015592575 0  -0.01993199996650219 0.07784400135278702 0  -0.01895999908447266 0.0781090036034584 0  -0.01950599998235703 0.07870599627494812 0  -0.01939200051128864 0.07723800092935562 0  -0.02146800048649311 0.02398199960589409 0  -0.02065099962055683 0.02420300059020519 0  -0.02098700031638145 0.02487999945878983 0  -0.02128399908542633 0.02556999959051609 0  -0.02181899920105934 0.02466700039803982 0  -0.02016299962997437 0.02510599978268147 0  -0.01980400085449219 0.02436099946498871 0  -0.01894200034439564 0.02449999935925007 0  -0.01931600086390972 0.02524900063872337 0  -0.02112800069153309 0.02328700013458729 0  -0.02201900072395802 0.02310300059616566 0  -0.0215000007301569 0.02208000048995018 0  -0.02104000002145767 0.02147500030696392 0  -0.02075899951159954 0.02254099957644939 0  -0.02028300054371357 0.02184299938380718 0  -0.0159779991954565 0.02190900035202503 0  -0.0164790004491806 0.02102600038051605 0  -0.01551300007849932 0.02102800086140633 0  -0.01687199994921684 0.02200100012123585 0  -0.01775299943983555 0.0219700001180172 0  -0.01727700047194958 0.02285799942910671 0  0.0379289984703064 0.07650800049304962 0  0.03780199959874153 0.07563400268554688 0  0.0389380007982254 0.0757099986076355 0  0.0384569987654686 0.08679799735546112 0  0.03911599889397621 0.08702400326728821 0  0.0380610004067421 0.08749199658632278 0  0.021076999604702 0.09502299875020981 0  0.02135399915277958 0.09431000053882599 0  0.02211599983274937 0.09456200152635574 0  0.02012299932539463 0.09544599801301956 0  0.02041799947619438 0.09458500146865845 0  -0.009344999678432941 0.09163899719715118 0  -0.008503000251948833 0.0919170007109642 0  -0.00917499978095293 0.09243500232696533 0  -0.008318999782204628 0.09271799772977829 0  -0.01977100037038326 0.09042400121688843 0  -0.02000899985432625 0.08980199694633484 0  -0.01904099993407726 0.09007800370454788 0  -0.02068299986422062 0.09040399640798569 0  -0.01754200085997581 0.09575799852609634 0  -0.01791699975728989 0.09641700237989426 0  -0.01828099973499775 0.09572499990463257 0  -0.0126350000500679 0.0900690034031868 0  -0.01184699963778257 0.0902549996972084 0  -0.012512999586761 0.09078499674797058 0  -0.0134309995919466 0.08989399671554565 0  -0.01276499964296818 0.08936499804258347 0  -0.01355999987572432 0.08919099718332291 0  -0.01620999909937382 0.09127099812030792 0  -0.01683299988508224 0.09178099781274796 0  -0.01704300008714199 0.09108100086450577 0  -0.014894999563694 0.09024199843406677 0  -0.01571800000965595 0.0900690034031868 0  -0.01504599954932928 0.08954799920320511 0  0.008949000388383865 0.0894400030374527 0  0.009895999915897846 0.08933600038290024 0  0.009239999577403069 0.09002599865198135 0  0.007234999909996986 0.07787600159645081 0  0.007818000391125679 0.07705099880695343 0  0.008179999887943268 0.07777199894189835 0  -0.007969999685883522 0.01696999929845333 0  -0.007158000022172928 0.0171739999204874 0  -0.008829999715089798 0.01686800085008144 0  -0.009727999567985535 0.01676099933683872 0  -0.01331999991089106 0.01675999909639359 0  -0.01355199981480837 0.01785599999129772 0  -0.01415199972689152 0.01696600019931793 0  -0.01275600027292967 0.01765700057148933 0  -0.01277200039476156 0.01869300007820129 0  -0.01194799970835447 0.01782000064849854 0  -0.0122859999537468 0.02163399942219257 0  -0.01276599988341331 0.02067999914288521 0  -0.01185199990868568 0.02070700004696846 0  -0.01140199974179268 0.0198340006172657 0  -0.01085400022566319 0.02067399956285954 0  -0.01233400031924248 0.01971100084483624 0  -0.01320500019937754 0.02166499942541122 0  -0.01460000034421682 0.02090699970722198 0  -0.01504100020974874 0.02186799980700016 0  -0.01412700023502111 0.021764000877738 0  -0.009405000135302544 0.01964199915528297 0  -0.01110100001096725 0.03067499957978725 0  -0.01160200033336878 0.02980899997055531 0  -0.0106410002335906 0.02974000014364719 0  -0.005747999995946884 0.0293320007622242 0  -0.00622999994084239 0.03028300032019615 0  -0.0067349998280406 0.0294209998100996 0  -0.008448000065982342 0.01968700066208839 0  -0.005987000185996294 0.019081000238657 0  -0.006959000136703253 0.01893699914216995 0  -0.006194999907165766 0.01823299936950207 0  -0.006281000096350908 0.01739500090479851 0  -0.005309999920427799 0.0176400002092123 0  0.04080799967050552 0.08347299695014954 0  0.04162999987602234 0.08287700265645981 0  0.04127899929881096 0.08403299748897552 0  0.04030200093984604 0.08427099883556366 0  0.01526200026273727 0.05800300091505051 0  0.01624700054526329 0.05778999999165535 0  0.01582100056111813 0.05871300026774406 0  0.02782700024545193 0.04184500128030777 0  0.02824899926781654 0.0407710000872612 0  0.02871700003743172 0.04141699895262718 0  0.02992199920117855 0.04563000053167343 0  0.03076699934899807 0.04486599937081337 0  0.03109700046479702 0.04554300010204315 0  0.02971599996089935 0.04899299889802933 0  0.02883899956941605 0.04918999969959259 0  0.02932699955999851 0.04822000116109848 0  0.02890799939632416 0.04748300090432167 0  0.02985399961471558 0.0472479984164238 0  0.02840599976480007 0.04844100028276443 0  0.02792700007557869 0.0493989996612072 0  0.02794600091874599 0.04773300141096115 0  0.02742400020360947 0.04705899953842163 0  0.02697600051760674 0.04797299951314926 0  0.02643799968063831 0.04729000106453896 0  0.03811600059270859 0.08563300222158432 0  0.03713399916887283 0.0857430025935173 0  0.03779999911785126 0.08506199717521667 0  0.03684300184249878 0.08514600247144699 0  0.007058999966830015 0.02390900067985058 0  0.00775599991902709 0.02435999922454357 0  0.007077999878674746 0.02498899959027767 0  0.007837000302970409 0.02533099986612797 0  0.02599900029599667 0.04820400103926659 0  0.02220099978148937 0.05069800093770027 0  0.02177000045776367 0.05161799862980843 0  0.02121599949896336 0.05090999975800514 0  0.0227460004389286 0.05140500143170357 0  0.02838099934160709 0.05014200136065483 0  0.01728799939155579 0.03460200130939484 0  0.01645400002598763 0.0345190018415451 0  0.01683099940419197 0.03360199928283691 0  0.01223399955779314 0.04015300050377846 0  0.01136500015854836 0.04018700122833252 0  0.01178199984133244 0.03927500173449516 0  0.01091200020164251 0.03931000083684921 0  0.0104940002784133 0.0402199998497963 0  0.01045900024473667 0.03843099996447563 0  0.01133000012487173 0.03839899972081184 0  0.01181699987500906 0.04106499999761581 0  -0.02729200012981892 0.06595300137996674 0  -0.02622300013899803 0.0665069967508316 0  -0.02723000012338161 0.06672299653291702 0  -0.02550400048494339 0.06597299873828888 0  -0.02517200075089931 0.06683199852705002 0  -0.02415500022470951 0.0671520009636879 0  -0.02467799931764603 0.0677649974822998 0  -0.02353500016033649 0.06657099723815918 0  -0.02315600030124187 0.06745400279760361 0  -0.02371799945831299 0.06805799901485443 0  -0.02739500068128109 0.06424400210380554 0  -0.01908800005912781 0.07955600321292877 0  -0.02004900015890598 0.07930099964141846 0  -0.01953300088644028 0.08721700310707092 0  -0.02040199935436249 0.08704899996519089 0  -0.01975700072944164 0.08650200068950653 0  -0.02062300033867359 0.08633799850940704 0  -0.01998399943113327 0.08578000217676163 0  -0.01905800029635429 0.08942499756813049 0  -0.01824199967086315 0.08958899974822998 0  -0.01814699918031693 0.0902549996972084 0  -0.01445300038903952 0.08288499712944031 0  -0.01151799969375134 0.07789699733257294 0  -0.01055100001394749 0.07816199958324432 0  -0.0111109996214509 0.07874999940395355 0  -0.01075199991464615 0.07957500219345093 0  -0.01017200015485287 0.07899899780750275 0  -0.0153590003028512 0.07526800036430359 0  -0.01582399941980839 0.07434999942779541 0  -0.01484400033950806 0.07463199645280838 0  -0.01386400032788515 0.07491400092840195 0  -0.01431799959391356 0.07399699836969376 0  -0.01841700077056885 0.07750999927520752 0  -0.01789299957454205 0.07688599824905396 0  -0.01887400075793266 0.07660699635744095 0  -0.01985700055956841 0.07632900029420853 0  -0.02430799975991249 0.06866300106048584 0  -0.02495500072836876 0.07083400338888168 0  -0.02457199990749359 0.0717260017991066 0  -0.02229399979114532 0.02364500053226948 0  -0.0225600004196167 0.02417000010609627 0  -0.02273900061845779 0.0246760006994009 0  -0.02293300069868565 0.02521999925374985 0  -0.02208399958908558 0.02538600005209446 0  -0.01941999979317188 0.02362900041043758 0  -0.01855099946260452 0.02375799976289272 0  -0.02029499970376492 0.02346999943256378 0  -0.0217519998550415 0.02257700078189373 0  -0.01742500066757202 0.01818300038576126 0  -0.01705300062894821 0.01894900016486645 0  -0.01814999990165234 0.01854999922215939 0  -0.01668200083076954 0.01780599914491177 0  -0.01811500079929829 0.02293100021779537 0  -0.0164000000804662
[...]
<PointData  Scalars="pressure"> 
<DataArray  type="Float64"  Name="pressure"  format="ascii">3.0459685929465422e-02  3.0459118359635266e-02  3.0491469344136650e-02  3.0498320674395878e-02  3.0488819130584835e-02  3.0457587126225601e-02  3.0448756597354319e-02  3.0442742034909466e-02  3.0434412074966416e-02  3.0455900258601350e-02  3.0654119360745746e-02  3.0646622343151252e-02  3.0625561824737975e-02  3.0611019354604110e-02  2.1724084047290843e-02  2.2002714360115146e-02  2.2488254303058494e-02  2.2884630105351078e-02  2.3519168334122539e-02  2.3473914464180803e-02  2.4116784687404517e-02  1.4465679863560787e-02  1.5029422091247456e-02  1.4906337394411433e-02  1.8655864867876841e-02  1.8381547765548366e-02  1.8381645565070111e-02  1.8658390356414239e-02  3.0380092165354193e-02  3.0377355259078781e-02  3.0328390531224728e-02  3.0266238973142172e-02  3.0340066247138461e-02  3.0345702510754476e-02  3.0391701919168602e-02  3.0402437158084449e-02  3.0362797238953892e-02  3.0417353902803524e-02  3.0470828270236526e-02  3.0506409488660919e-02  3.0503410600629124e-02  3.0445150010287886e-02  3.0453555718292766e-02  3.0465452943607675e-02  3.0471197102323475e-02  3.0475425089951942e-02  3.0462752149223456e-02  3.0460471926653049e-02  3.0451502914690311e-02  2.5612183355724492e-02  2.4284462897823003e-02  2.5728174166328433e-02  3.4550467006134317e-02  3.4741190472878471e-02  3.6299162583058403e-02  2.6628968550941504e-02  2.6046023409697340e-02  2.8494280982442697e-02  2.4913090055796672e-02  2.4218546959652521e-02  8.2442802568439867e-03  7.8433734030927960e-03  7.8850454058266642e-03  7.5449344278015786e-03  1.4351101309157056e-02  1.4892279476376892e-02  1.3207967375068672e-02  1.5107320903908336e-02  1.0607709306521563e-02  1.0117237541496606e-02  1.1099369049099120e-02  1.0528547532554737e-02  1.0032532825066257e-02  1.0053766628268400e-02  1.1022152940807637e-02  1.1013016681203395e-02  1.1524241658586259e-02  1.1362516331188970e-02  1.1269890501128726e-02  1.1811701505841495e-02  1.1485854613434609e-02  1.1945715966333318e-02  1.1999277239354294e-02  4.1326669549869438e-03  4.2327036055412257e-03  4.7257707853691523e-03  1.6744411864772976e-03  2.5291397040956808e-03  2.3606179061353393e-03  3.0660280094998271e-02  3.0677070933653051e-02  3.0628460491051886e-02  3.0612512731964654e-02  3.0537197331271391e-02  3.0508653920230208e-02  3.0520946762546033e-02  3.0533704876872160e-02  3.0530055523814000e-02  3.0548153610158911e-02  3.0502169707153266e-02  3.0508553093287035e-02  3.0527593372100655e-02  3.0552357452634987e-02  3.0556984887140610e-02  3.0529137056251671e-02  3.0485008287439719e-02  3.0482166701184962e-02  3.0468460306681325e-02  3.0473854916964617e-02  3.0622778873249233e-02  3.0400282795012442e-02  3.0376438803680711e-02  3.0421057214680424e-02  3.0703743079131932e-02  3.0672473764325810e-02  3.0657251802875509e-02  3.0661266400024766e-02  3.0777497372777927e-02  3.0727875558574227e-02  3.0739114397474315e-02  3.0710828800233302e-02  3.0779530812720855e-02  2.8210514461821958e-02  2.7975489687967255e-02  2.8435028423037821e-02  2.9211275375167864e-02  2.1404302877539694e-02  2.2420015628831943e-02  2.1404086177412070e-02  3.6757127461953282e-02  3.6613613282241303e-02  3.6830152330561527e-02  3.7701845836044134e-02  3.7697200190471229e-02  3.7777008818988413e-02  3.7723619221063119e-02  3.7536764600728370e-02  3.7692686402174283e-02  3.7637077926923196e-02  3.7777698685778620e-02  3.7491032508703614e-02  3.7235930762658256e-02  3.7418315203071754e-02  3.7303534634588409e-02  3.7085921141973101e-02  3.6952924327963210e-02  3.2226615254275011e-02  3.2513122164240002e-02  3.1339178478077864e-02  3.1517555308038465e-02  3.1350372476443525e-02  3.1404505868792253e-02  3.1400589716539577e-02  3.1510705559540983e-02  3.6636948415801798e-02  3.3146612547939158e-02  3.2213613195614992e-02  3.2177228931847088e-02  3.3209104161759401e-02  3.7272128953621281e-02  3.3050561668151984e-02  3.2891730859476886e-02  3.2886175434061506e-02  3.1771766362097748e-02  3.1531827135653341e-02  3.1854993271197757e-02  3.1637360494324196e-02  3.1296309353852317e-02  3.1704146923853427e-02  3.1901192962239061e-02  3.1386133754911845e-02  2.3945844812128816e-02  2.3111511715845939e-02  2.3439042142494471e-02  2.2699667273650307e-02  2.2476143433160664e-02  2.2240176805581623e-02  2.2166025639746224e-02  2.2287100673343163e-02  2.2006062630866925e-02  2.1934838712248838e-02  2.4005354642085596e-02  1.8098266589687929e-02  1.8360312893488863e-02  1.5105019414016473e-02  1.5399519129484205e-02  1.5572806391349279e-02  1.5841978438938035e-02  1.6031143280476126e-02  1.3525932437462087e-02  1.3215147349583465e-02  1.2757652075952700e-02  1.5471416510119001e-02  1.4655213174217089e-02  1.3743650894054245e-02  1.4183609881924599e-02  1.3745852113344456e-02  1.3302912713304919e-02  1.7611231921244440e-02  1.8008647279922445e-02  1.7457894219028901e-02  1.6814506405181420e-02  1.7272130284367311e-02  1.8362261918941407e-02  1.8333458852430123e-02  1.8658847880146580e-02  1.8954783539789050e-02  2.1863633331753292e-02  2.1285727816561743e-02  2.1004859963619300e-02  3.0448050799851342e-02  3.0435326726715225e-02  3.0406302596519007e-02  3.0372897701265666e-02  3.0285566720821298e-02  3.0423996146019976e-02  3.0428946964165086e-02  3.0412115241527548e-02  3.0492640907586299e-02  3.0473677611371333e-02  3.0459947546511233e-02  3.0479224230638188e-02  3.0461473052910651e-02  3.0447490672346547e-02  3.0452794780197783e-02  3.0437761477134357e-02  3.0437714687021326e-02  3.0332677491823400e-02  3.0353618961823488e-02  3.0272455576220353e-02  3.0525615186022065e-02  3.0519065075292704e-02  3.0521631099869970e-02  3.0483088779834171e-02  3.0562619568915129e-02  3.0558818667971749e-02  3.0529188603255337e-02  3.0541341052013095e-02  3.0492530761742596e-02  3.0209360470048928e-02  2.9782347125863862e-02  3.1532795770314280e-02  2.8699820415843437e-02  2.9491563982698223e-02  2.9732097626601482e-02  2.6745193141426298e-02  2.6751696020218464e-02  2.6361549664900064e-02  2.5234297224385534e-02  3.8152221028658145e-02  3.8605934308470598e-02  3.6973756623473748e-02  3.6216484981905606e-02  3.7594326386059640e-02  3.6937403162218121e-02  3.1529173328660225e-02  3.0646368387101740e-02  3.0655090022592028e-02  2.9857233906141617e-02  3.3378746597212447e-02  3.5191539323551672e-02  3.4681238120004093e-02  3.5121777000111404e-02  3.4528135510710573e-02  3.3641210451877596e-02  3.3598702504250476e-02  2.1387278661020380e-02  1.9885578112926482e-02  1.9294601334415240e-02  2.1956083389025816e-02  2.3187031489114333e-02  2.1415852616462200e-02  2.3107572792405068e-02  9.1107321315628646e-03  9.1351478301947564e-03  9.5755061415415555e-03  9.5459890539847051e-03  8.2032260619593761e-03  6.8665277973722974e-03  6.9581852051842849e-03  6.9621328637759251e-03  7.5742701144745073e-03  1.4719048964352090e-02  1.1962178317219838e-02  1.2774358820589055e-02  1.2145343900502186e-02  1.1492258153174012e-02  1.0971034475903607e-02  9.2144007621616768e-03  9.6067782038331342e-03  9.7097681608948796e-03  9.3390371088096658e-03  9.9889886588568587e-03  1.0356844876809320e-02  9.7123644201928001e-03  1.1920093506231615e-02  1.1996664508398801e-02  1.2505171619693785e-02  1.2463895824667672e-02  1.0499027956615066e-02  9.5883114077194992e-03  9.1549712238559976e-03  1.0199150479292934e-02  1.0730207101595069e-02  1.0325467284544051e-02  1.0417193335898326e-02  9.9298836412261473e-03  1.0529485167752411e-02  1.1008804263983497e-02  1.0506486709984624e-02  1.1516203156895888e-02  1.0473216677140193e-02  1.0023135723670747e-02  1.0917764965500261e-02  1.0593105657094773e-02  1.1711879946602438e-02  1.1884699184163891e-02  1.0974357841509104e-02  6.1924816239002714e-03  6.3528213814607846e-03  6.6230761153616598e-03  6.7153487953020598e-03  6.1765763135946949e-03  6.3687829051844724e-03  6.1016782503232336e-03  5.8310799741662957e-03  2.3495032412919580e-03  3.0521887231154607e-03  3.0989822453682293e-03  1.7423150476410833e-03  2.3369077690553013e-03  1.5974140452496427e-03  1.3389916405265843e-03  1.1785970767889294e-03  1.8114438861899056e-03  2.0126537215741057e-03  1.4975771986397338e-02  1.5081187244989610e-02  1.5890585902381828e-02  1.4220890931665878e-02  1.4114576555610320e-02  7.2247046018074842e-03  6.2929968295140915e-03  6.8680620733982296e-03  7.2034636988383451e-03  7.2000716675133525e-03  7.6586360330905059e-03  6.9888605202134621e-03  7.2649061462620700e-03  6.9493590938400664e-03  6.5489530476351455e-03  7.1477941529053714e-03  6.0193081547121746e-03  5.4364430290904202e-03  5.0582202131250233e-03  5.6991476023903476e-03  3.6582280105647604e-03  3.9266794113073794e-03  4.8680955676214492e-03  2.8091650543384319e-03  4.6393209440993115e-03  1.2097973052691058e-02  1.2293198893089505e-02  1.0999257769338685e-02  2.3466426994396765e-02  2.3485711279947311e-02  2.4563534673044743e-02  3.1186174994953440e-02  3.0134114618015208e-02  3.1228298291012164e-02  3.0186041806310394e-02  3.1142952836877218e-02  3.0166936485252437e-02  3.0215279835986753e-02  3.0440612781908016e-02  3.0403441725782483e-02  3.0493435413009213e-02  1.4998084134869149e-02  1.4996571657533051e-02  1.5548625808681982e-02  1.4594900031614646e-02  1.5256538986035727e-02  1.4708271683112353e-02  1.4199787863031426e-02  1.4851714801800692e-02  7.8172859780808596e-03  9.6958722807362219e-03  8.6760016028544426e-03  8.2303148401732251e-03  2.9495942359510134e-02  2.8730193197702064e-02  2.9696465553803425e-02  3.0238734019788830e-02  2.9235669913572133e-02  2.9940290045321196e-02  3.0870209301126571e-02  3.1926704839108484e-02  3.1560431578104321e-02  3.2605577633692318e-02  3.2557003860528205e-02  3.3565778513011742e-02  3.1499773303808466e-02  6.0721157003579586e-03  5.4010443192654724e-03  5.9904306024917489e-03  7.6135917427708824e-03  7.3695396006646999e-03  7.3500234843455643e-03  4.0001285654294207e-03  3.2527872692702069e-03  3.5938626696168964e-03  2.8566589130054505e-03  4.2768725441673511e-03  4.4911840941136393e-03  2.7074569161302520e-03  3.1625547389321738e-03  3.6412844074252063e-03  4.8703581553831803e-03  6.3171464742165159e-03  6.8369413144059310e-03  6.0881691679535964e-03  5.5625157397939107e-03  5.3145712967484979e-03  2.2291640518957677e-03  3.2265053700295289e-03  1.5138334710042764e-03  1.3682528620636882e-03  8.4839860062152495e-04  3.3931394930628717e-03  5.2998429399965519e-03  4.0887200104115125e-03  5.3467423421342322e-03  3.0485734911580280e-02  3.0482663592705555e-02  3.0505819181900113e-02  3.0482876862651002e-02  3.0511682650301963e-02  3.0565169072568552e-02  3.0551323558011531e-02  3.0578296732029022e-02  3.0582566716589196e-02  3.0576176403663606e-02  3.0591870237418054e-02  3.0610021827113670e-02  3.0330104009204543e-02  3.0357140387617599e-02  3.0336709022732996e-02  3.0285426885150818e-02  3.0449371965377704e-02  3.0481367804237956e-02  3.0509643332597508e-02  3.0534613288573986e-02  3.0561227932253555e-02  3.0586957570276858e-02  3.0733719463214834e-02  3.0880993994649251e-02  3.0840460652982769e-02  3.0815197222572647e-02  3.0796419427287801e-02  3.0866288942934351e-02  3.0684604852199489e-02  3.0703326655208904e-02  2.3591617753013085e-02  2.4457482596146204e-02  2.3358803706563978e-02  2.3337307017194726e-02  2.3949220003719171e-02  2.7346179878913107e-02  2.8035745584866191e-02  2.8086946337312697e-02  2.6791953747711799e-02  2.6344380053658672e-02  2.6824784788781156e-02  3.6143151159442971e-02  3.5910587140450423e-02  3.5911155883035742e-02  2.5015388000011685e-02  3.6715607895117755e-02  3.6494181293217950e-02  3.6990201101611761e-02  2.7356580367232736e-02  2.6376292302028675e-02  2.5938411914786796e-02  2.6973530291009282e-02  2.7184845557764594e-02  3.7945079632987259e-02  3.7924299211047036e-02  3.7890066129959640e-02  3.7962397330940714e-02  3.7776762898423272e-02  3.7865503724458724e-02  3.7832195956610519e-02  3.6093685441895215e-02  3.6658711969517151e-02  3.6628060053744076e-02  3.7031538481120868e-02  3.6685623565976350e-02  3.7079273290527071e-02  3.6939677587067940e-02  3.7313675703565960e-02  3.7340217290475493e-02  3.7603600574868862e-02  3.7449562598557279e-02  3.7215297300901076e-02  3.7335797861633109e-02  3.5737708309637940e-02  3.6360460506597997e-02  3.5667411929791198e-02  3.4873733776841088e-02  3.5579433511516427e-02  3.4813843868714403e-02  3.7196298779485146e-02  3.7215419550103795e-02  3.7246349014524997e-02  3.7192272247686405e-02  3.7653688107996700e-02  1.9107261425294297e-02  1.8311820546392944e-02  1.8181085109075439e-02  2.5657835152569149e-02  2.5664420834825303e-02  2.6770870152098704e-02  2.4540431459760995e-02  1.2411188888646578e-02  1.1552094296764185e-02  1.2049688420301982e-02  1.1971701686062005e-02  1.2809996124944238e-02  1.3247490839408106e-02  2.0411199772153461e-02  2.1327547556161057e-02  2.0632143456219779e-02  1.9536151132520784e-02  2.0215843569393020e-02  1.8090437500697762e-02  1.8281425563351886e-02  1.7507150695721934e-02  1.9737372925184161e-02  1.8894156266691230e-02  1.6151976196544179e-02  1.5363790245920888e-02  1.5403508204145624e-02  1.6182959423966959e-02  1.6985591164114709e-02  1.7006815590555217e-02  1.3083950667024712e-02  1.3906916827315706e-02  1.3799609924296938e-02  2.0610068486966372e-02  2.0683050141338116e-02  1.9726533087356682e-02  1.7508890263873950e-02  1.8459390887568657e-02  3.7047735872282855e-02  3.7830424312061656e-02  3.7851519600143831e-02  3.7843774734288294e-02  3.7749154996368092e-02  3.7801922528058439e-02  3.7838577916331627e-02  3.7821488246902707e-02  3.7588806501348396e-02  3.7708478742838551e-02  3.7821196267169559e-02  3.7244574773578787e-02  3.7424671661585661e-02  3.7235715979942775e-02  3.7412917085883297e-02  3.6490106975227907e-02  3.6086291581702692e-02  3.3625736349276819e-02  3.2874637249939297e-02  3.2810964365291434e-02  3.7040626656228703e-02  3.7202971930389364e-02  3.7178947231821559e-02  3.7548535584064520e-02  3.0496965142042844e-02  3.1549555142438873e-02  3.1540059446720406e-02  3.1540905787214246e-02  3.1694187286936536e-02  3.1713355954574494e-02  3.1687807366842360e-02  3.1669740497379813e-02  3.1216467544385847e-02  3.1185638522770707e-02  3.1177214717818379e-02  3.1196612853943262e-02  3.1231454276711618e-02  3.1250848232567761e-02  3.1100302595571810e-02  3.1065703688825809e-02  3.1037916254063855e-02  3.1126614152348062e-02  3.0995640564983572e-02  3.1017905745404785e-02  3.0968117286140850e-02  3.1006612892919356e-02  3.2265866298314044e-02  3.2289567832226480e-02  3.1256245749643474e-02  3.4967312560602419e-02  3.4125916002549689e-02  3.4887438294491098e-02  3.4785879442137638e-02  3.5549668112525176e-02  3.4060108393752314e-02  3.6907322537453699e-02  3.6402610268983136e-02  3.6383722273417587e-02  2.7948761098095576e-02  2.6946046816577161e-02  2.7885184703481107e-02  3.3011751214237349e-02  3.3050754507609685e-02  3.3951405881061228e-02  3.2831684682742265e-02  3.2711266440854633e-02  3.2852676235752144e-02  3.3024893321926228e-02  3.2943221116264389e-02  3.3148613731396735e-02  3.2739045993018759e-02  3.2748390681754905e-02  3.2885842701681121e-02  3.5194652119026469e-02  3.5458929845856454e-02  3.5279434396645395e-02  3.5008989739720990e-02  3.4924858595220792e-02  3.4816468801162681e-02  3.4565523224209527e-02  3.4526202084857689e-02  3.4153645892732731e-02  3.4042248539239588e-02  3.3873503711936044e-02  3.3752780249035171e-02  3.3778510808878691e-02  3.4035616917181044e-02  3.4038103925939825e-02  3.3802977789732201e-02  3.1472399174665690e-02  3.1515227396525430e-02  3.1308284027780423e-02  3.1329826553807519e-02  3.1103943071082125e-02  3.1590669841379641e-02  3.0946796460359985e-02  3.0647226527872301e-02  3.1263788279672272e-02  3.2621340528091819e-02  3.2074667740314533e-02  3.2032015273678952e-02  3.1786987938027610e-02  3.1686195597842443e-02  3.0471797941254805e-02  3.1052521130871126e-02  3.0852237401190464e-02  3.1406759638510126e-02  3.1542450187863252e-02  3.1675949457351499e-02  3.1963459577613096e-02  3.1230121877915094e-02  3.1130507600890606e-02  2.1137403660385853e-02  2.1129362957394138e-02  2.0774403990649490e-02  1.0296926542141035e-02  1.1118934522367972e-02  1.0201402520082713e-02  2.1623602488091337e-02  2.1542155603605839e-02  2.2304058972413998e-02  2.2755008318841127e-02  1.6717686787023352e-02  1.6781952866948759e-02  1.6395452751006394e-02  1.6640713300361383e-02  1.7031229090463926e-02  1.7218189275554775e-02  1.7743128137986699e-02  1.8654784057081094e-02  1.9241278372352708e-02  1.9387855045318796e-02  1.8106595439327272e-02  1.7389009419676093e-02  1.7100910610634894e-02  1.7297339356346336e-02  1.7808885533900434e-02  1.8071777435755703e-02  1.5765154529481611e-02  1.5845417510920903e-02  1.6462233158302669e-02  1.4465924746657118e-02  1.6064375939761597e-02  1.4934240531790734e-02  1.6484340126721765e-02  1.6901631715143556e-02  1.7181074148632732e-02  1.7572976528902134e-02  1.5682582434147753e-02  1.6130435426504754e-02  1.4571103685685859e-02  1.4150368628657355e-02  1.0709960446630648e-02  1.1440155444710626e-02  1.1060688953299582e-02  1.0239814583596428e-02  1.4185099126029402e-02  1.3363954583669362e-02  1.3777619039038090e-02  9.9579124030081279e-03  1.0960825535973634e-02  1.0316781524275001e-02  1.1557266885018527e-02  1.0617673670378790e-02  1.2974701677657409e-02  1.2195154183571253e-02  1.1770585075682143e-02  1.2506218249035852e-02  1.4298794045617074e-02  1.1908479553379286e-02  1.2800744369217786e-02  1.8208789425061017e-02  1.7859185412362148e-02  1.7866260312690237e-02  1.8406357664632191e-02  1.8281047922933936e-02  1.1030304814760384e-02  1.1898310427067911e-02  1.8800014220732440e-02  1.8878125909488865e-02  1.8689780541017990e-02  2.0021854810304610e-02  2.0049558195123725e-02  1.9679796350683759e-02  2.1366574510149724e-02  2.1085643300016020e-02  2.1028240445270005e-02  1.8026680171203676e-02  1.8970836522892609e-02  1.8643562822143432e-02  1.8970894966628037e-02  2.2231129058201456e-02  2.2766518434647193e-02  2.1616831792215539e-02  2.1496441596653478e-02  2.0787536226325409e-02  3.0210027643533484e-02  3.0315545137784658e-02  3.0129055357391937e-02  3.0097267706572565e-02  3.0262613028955106e-02  3.0462610950653758e-02  3.0483625159001840e-02  3.0470426798500042e-02  3.0472619542461072e-02  3.0467378423394031e-02  3.0466381195543256e-02  3.0453842235746334e-02  2.9442239149309466e-02  2.9480969134568991e-02  2.9329171411093782e-02  2.9584784483982125e-02  2.9688913005176634e-02  2.9789705619386379e-02  2.9813566184551485e-02  3.0170570708819785e-02  3.0210149473926626e-02  3.0108206101297875e-02  3.0062119625902266e-02  2.9991748309157018e-02  2.9940245711364295e-02  3.0122555152438210e-02  3.0052239210554953e-02  2.9865320537566822e-02  2.9732078881889390e-02  2.9811348188781998e-02  2.9171649681482906e-02  2.9294608102271545e-02  2.9417822827005131e-02  3.0299050228113994e-02  3.0324639206083085e-02  3.0420138077394278e-02  2.7275169994229354e-02  2.7027991303281217e-02  2.6961877137714710e-02  2.7195967206315980e-02  3.0199041554627340e-02  3.0208151951642413e-02  3.0155385036216380e-02  3.0131293389167445e-02  3.0055802323505049e-02  3.0202811785372631e-02  3.0243821059545369e-02  2.9797206958190520e-02  2.9659095110441562e-02  2.9596404612036699e-02  2.9546584933461833e-02  2.9440186504439018e-02  3.0026235695327468e-02  2.9946694543983101e-02  2.9870107625397924e-02  2.9824288371997309e-02  3.0371807050681043e-02  3.0399165109373023e-02  3.0376823666816155e-02  3.0352650058341576e-02  3.0382155535188242e-02  3.0448177650259908e-02  3.0418565895105980e-02  3.0426080905439933e-02  3.0362464618681344e-02  3.0343382270983297e-02  3.0392318242351987e-02  3.0400188605178687e-02  3.0453756582834016e-02  3.0427262036698204e-02  3.0458780512185479e-02  3.0421925451423505e-02  3.0509310766028121e-02  3.0557342323002265e-02  3.0592836292518757e-02  3.0523197004034670e-02  3.0568573665880797e-02  3.0611754632507489e-02  3.0623972686570151e-02  2.8498458864060976e-02  2.769324278